 Gaussian 09, Revision C.01,
 Gaussian 09:  EM64L-G09RevC.01 23-Sep-2011

 -----------------------------------------
 # opt freq b3lyp/6-31g* geom=connectivity
 -----------------------------------------

 99/9=1/99;
 -------------------
 Title Card Required
 -------------------
 Charge =  0 Multiplicity = 1

 SCF Done:  E(RB3LYP) =  -155.976542490     A.U. after   13 cycles
 SCF Done:  E(RB3LYP) =  -155.985294049     A.U. after   13 cycles
 SCF Done:  E(RB3LYP) =  -155.985965996     A.U. after   11 cycles
 SCF Done:  E(RB3LYP) =  -155.986262354     A.U. after   11 cycles
 SCF Done:  E(RB3LYP) =  -155.986329783     A.U. after   11 cycles
 SCF Done:  E(RB3LYP) =  -155.986482951     A.U. after   11 cycles
 SCF Done:  E(RB3LYP) =  -155.986488422     A.U. after    8 cycles
 SCF Done:  E(RB3LYP) =  -155.986489421     A.U. after    8 cycles
 SCF Done:  E(RB3LYP) =  -155.986489693     A.U. after    7 cycles
 Optimization completed.
    -- Stationary point found.
 Normal termination of Gaussian 09 at Tue Mar  2 14:57:12 2021.

 --------------------------------------------------------------------
 #N Geom=AllCheck Guess=TCheck SCRF=Check GenChk RB3LYP/6-31G(d) Freq
 --------------------------------------------------------------------

 Structure from the checkpoint file:  cisbut.chk
 -------------------
 Title Card Required
 -------------------
 Charge =  0 Multiplicity = 1

                         Standard orientation:
 ---------------------------------------------------------------------
 Center     Atomic      Atomic             Coordinates (Angstroms)
 Number     Number       Type             X           Y           Z
 ---------------------------------------------------------------------
      1          6           0       -1.543668   -0.493522   -0.074929
      2          1           0       -1.174626   -1.455712   -0.421393
      3          1           0       -2.610982   -0.418714    0.112183
      4          6           0       -0.728297    0.554374    0.099648
      5          1           0       -1.163831    1.509317    0.395781
      6          6           0        0.728302    0.554377   -0.099649
      7          1           0        1.163831    1.509321   -0.395780
      8          6           0        1.543667   -0.493524    0.074929
      9          1           0        1.174607   -1.455708    0.421390
     10          1           0        2.610983   -0.418731   -0.112177
 ---------------------------------------------------------------------

 SCF Done:  E(RB3LYP) =  -155.986489693     A.U. after    1 cycles

 The electronic state is 1-A.
 Alpha  occ. eigenvalues --  -10.19209 -10.19177 -10.18238 -10.18238  -0.79919
 Alpha  occ. eigenvalues --   -0.72406  -0.61593  -0.52768  -0.48630  -0.43323
 Alpha  occ. eigenvalues --   -0.42102  -0.36649  -0.34621  -0.30646  -0.23115
 Alpha virt. eigenvalues --   -0.02280   0.07814   0.10961   0.12616   0.15053
 Alpha virt. eigenvalues --    0.17860   0.19163   0.21235   0.31484   0.33946
 Alpha virt. eigenvalues --    0.40630   0.47809   0.53656   0.53660   0.57676

 Mulliken atomic charges:
              1
     1  C   -0.330790
     2  H    0.142980
     3  H    0.142489
     4  C   -0.084813
     5  H    0.130133
     6  C   -0.084812
     7  H    0.130134
     8  C   -0.330790
     9  H    0.142980
    10  H    0.142489
 Sum of Mulliken atomic charges =   0.00000

 Dipole moment (field-independent basis, Debye):
    X=              0.0000    Y=              0.1206    Z=              0.0000  Tot=              0.1206
 Quadrupole moment (field-independent basis, Debye-Ang):
   XX=            -22.9281   YY=            -22.7850   ZZ=            -27.4371
   XY=              0.0000   XZ=             -0.6598   YZ=              0.0000

  Exact polarizability:  60.693   0.000  44.675  -0.712   0.000  17.994
 Approx polarizability:  87.298   0.000  70.226   0.976   0.000  24.985

                     1                      2                      3
                     A                      A                      A
 Frequencies --   154.7502               275.8045               478.0694
 Red. masses --     1.5193                 2.5205                 1.3390
 Frc consts  --     0.0214                 0.1130                 0.1803
 IR Inten    --     0.1270                 0.0014                10.4100

                     4                      5                      6
                     A                      A                      A
 Frequencies --   613.8685               757.1494               892.5098
 Red. masses --     1.7530                 1.6673                 2.0702
 Frc consts  --     0.3892                 0.5631                 0.9716
 IR Inten    --     5.1018                 2.7757                 0.4117

                     7                      8                      9
                     A                      A                      A
 Frequencies --   934.1491               934.8030              1025.4633
 Red. masses --     1.3983                 1.3592                 1.1108
 Frc consts  --     0.7189                 0.6998                 0.6882
 IR Inten    --     3.8243                70.1960                 1.1457

                    10                     11                     12
                     A                      A                      A
 Frequencies --  1036.9327              1076.3542              1114.9247
 Red. masses --     1.0860                 1.4676                 1.5899
 Frc consts  --     0.6880                 1.0018                 1.1645
 IR Inten    --    25.0059                 0.0203                 6.0350

                    13                     14                     15
                     A                      A                      A
 Frequencies --  1323.9834              1358.5332              1458.2111
 Red. masses --     1.2771                 1.2936                 1.1604
 Frc consts  --     1.3189                 1.4066                 1.4538
 IR Inten    --     0.3591                 0.1225                 1.2668

                    16                     17                     18
                     A                      A                      A
 Frequencies --  1486.0532              1695.8996              1720.2997
 Red. masses --     1.2731                 4.7496                 3.7033
 Frc consts  --     1.6564                 8.0484                 6.4573
 IR Inten    --     6.4891                 1.6681                 2.0617

                    19                     20                     21
                     A                      A                      A
 Frequencies --  3141.9136              3154.7258              3165.3893
 Red. masses --     1.0843                 1.0789                 1.0626
 Frc consts  --     6.3064                 6.3263                 6.2732
 IR Inten    --    12.5787                35.9037                 6.6080

                    22                     23                     24
                     A                      A                      A
 Frequencies --  3169.5333              3245.6032              3247.8749
 Red. masses --     1.0700                 1.1162                 1.1165
 Frc consts  --     6.3331                 6.9276                 6.9393
 IR Inten    --     0.1182                23.1506                 8.7743

 - Thermochemistry -
 -------------------
 Temperature   298.150 Kelvin.  Pressure   1.00000 Atm.
 Atom     1 has atomic number  6 and mass  12.00000

 Molecular mass:    54.04695 amu.
 Principal axes and moments of inertia in atomic units:
                           1         2         3
     Eigenvalues --    83.91075 322.26855 398.54369
           X            0.99998   0.00000  -0.00582
           Y            0.00000   1.00000   0.00000
           Z            0.00582   0.00000   0.99998
 This molecule is an asymmetric top.
 Rotational symmetry number  1.
 Rotational temperatures (Kelvin)      1.03221     0.26876     0.21733
 Rotational constants (GHZ):          21.50787     5.60012     4.52834
 Zero-point vibrational energy     224077.3 (Joules/Mol)
                                   53.55576 (Kcal/Mol)
 Warning -- explicit consideration of   4 degrees of freedom as
           vibrations may cause significant error
 Vibrational temperatures:    222.65   396.82   687.83   883.22  1089.37
          (Kelvin)           1284.12  1344.03  1344.97  1475.41  1491.91
                             1548.63  1604.13  1904.91  1954.62  2098.04
                             2138.10  2440.02  2475.12  4520.51  4538.94
                             4554.28  4560.25  4669.69  4672.96

 Zero-point correction=                           0.085347 (Hartree/Particle)
 Thermal correction to Energy=                    0.090051
 Thermal correction to Enthalpy=                  0.090995
 Thermal correction to Gibbs Free Energy=         0.058640
 Sum of electronic and zero-point Energies=           -155.901143
 Sum of electronic and thermal Energies=              -155.896439
 Sum of electronic and thermal Enthalpies=            -155.895494
 Sum of electronic and thermal Free Energies=         -155.927850

                     E (Thermal)             CV                S
                      KCal/Mol        Cal/Mol-Kelvin    Cal/Mol-Kelvin
 Total                   56.508             15.774             68.097
 Electronic               0.000              0.000              0.000
 Translational            0.889              2.981             37.884
 Rotational               0.889              2.981             23.892
 Vibrational             54.730              9.813              6.321
 Vibration     1          0.620              1.897              2.613
 Vibration     2          0.677              1.718              1.560
 Vibration     3          0.835              1.299              0.715
 Vibration     4          0.973              1.003              0.426

 Optimization completed.
    -- Stationary point found.
 Normal termination of Gaussian 09 at Tue Mar  2 14:57:43 2021.
