 Gaussian 09, Revision C.01,
 Gaussian 09:  EM64L-G09RevC.01 23-Sep-2011

 -----------------------------------------
 # opt freq b3lyp/6-31g* geom=connectivity
 -----------------------------------------

 99/9=1/99;
 -------------------
 Title Card Required
 -------------------
 Charge =  0 Multiplicity = 1

 SCF Done:  E(RB3LYP) =  -232.981595234     A.U. after   19 cycles
 SCF Done:  E(RB3LYP) =  -233.070293464     A.U. after   17 cycles
 SCF Done:  E(RB3LYP) =  -233.171871742     A.U. after   17 cycles
 SCF Done:  E(RB3LYP) =  -233.262251164     A.U. after   16 cycles
 SCF Done:  E(RB3LYP) =  -233.342093844     A.U. after   15 cycles
 SCF Done:  E(RB3LYP) =  -233.387025458     A.U. after   14 cycles
 SCF Done:  E(RB3LYP) =  -233.407018365     A.U. after   14 cycles
 SCF Done:  E(RB3LYP) =  -233.414143379     A.U. after   12 cycles
 SCF Done:  E(RB3LYP) =  -233.416867679     A.U. after   13 cycles
 SCF Done:  E(RB3LYP) =  -233.417995949     A.U. after   14 cycles
 SCF Done:  E(RB3LYP) =  -233.418392661     A.U. after   14 cycles
 SCF Done:  E(RB3LYP) =  -233.418578810     A.U. after   11 cycles
 SCF Done:  E(RB3LYP) =  -233.418685115     A.U. after   12 cycles
 SCF Done:  E(RB3LYP) =  -233.418785832     A.U. after   11 cycles
 SCF Done:  E(RB3LYP) =  -233.418877617     A.U. after   11 cycles
 SCF Done:  E(RB3LYP) =  -233.418917804     A.U. after   11 cycles
 SCF Done:  E(RB3LYP) =  -233.418930964     A.U. after    9 cycles
 SCF Done:  E(RB3LYP) =  -233.418934839     A.U. after    8 cycles
 SCF Done:  E(RB3LYP) =  -233.418936192     A.U. after    8 cycles
 Optimization completed.
    -- Stationary point found.
 Normal termination of Gaussian 09 at Tue Mar  2 15:32:07 2021.

 --------------------------------------------------------------------
 #N Geom=AllCheck Guess=TCheck SCRF=Check GenChk RB3LYP/6-31G(d) Freq
 --------------------------------------------------------------------

 Structure from the checkpoint file:  hex04.chk
 -------------------
 Title Card Required
 -------------------
 Charge =  0 Multiplicity = 1

                         Standard orientation:
 ---------------------------------------------------------------------
 Center     Atomic      Atomic             Coordinates (Angstroms)
 Number     Number       Type             X           Y           Z
 ---------------------------------------------------------------------
      1          6           0        1.197883    0.727855   -0.239497
      2          1           0        2.041332    1.265281    0.209641
      3          1           0        1.364182    0.758665   -1.330072
      4          6           0       -0.108847    1.425490    0.064536
      5          1           0       -0.107419    2.506706    0.184895
      6          6           0       -1.257760    0.730501    0.103801
      7          1           0       -2.206869    1.234555    0.272162
      8          6           0       -1.262766   -0.722030   -0.104102
      9          1           0       -2.215339   -1.219742   -0.271676
     10          6           0       -0.118645   -1.424781   -0.064350
     11          1           0       -0.124090   -2.506092   -0.183707
     12          6           0        1.192870   -0.735803    0.239386
     13          1           0        1.359238   -0.767709    1.329862
     14          1           0        2.032554   -1.279053   -0.209740
 ---------------------------------------------------------------------

 SCF Done:  E(RB3LYP) =  -233.418936192     A.U. after    1 cycles

 The electronic state is 1-A.
 Alpha  occ. eigenvalues --  -10.18494 -10.18473 -10.18129 -10.18128 -10.17875
 Alpha  occ. eigenvalues --  -10.17844  -0.83027  -0.73478  -0.73435  -0.61260
 Alpha  occ. eigenvalues --   -0.58238  -0.50038  -0.48282  -0.43746  -0.41429
 Alpha  occ. eigenvalues --   -0.40957  -0.38578  -0.36472  -0.32815  -0.31319
 Alpha  occ. eigenvalues --   -0.29945  -0.20553
 Alpha virt. eigenvalues --   -0.01710   0.08743   0.09760   0.13981   0.14120
 Alpha virt. eigenvalues --    0.15343   0.16858   0.17386   0.19450   0.21216
 Alpha virt. eigenvalues --    0.23448   0.25635   0.26984   0.34214   0.40893

 Mulliken atomic charges:
              1
     1  C   -0.298827
     2  H    0.139553
     3  H    0.149542
     4  C   -0.123042
     5  H    0.125992
     6  C   -0.115976
     7  H    0.122730
     8  C   -0.115923
     9  H    0.122726
    10  C   -0.123057
    11  H    0.126006
    12  C   -0.298826
    13  H    0.149543
    14  H    0.139559
 Sum of Mulliken atomic charges =   0.00000

 Dipole moment (field-independent basis, Debye):
    X=              0.3780    Y=             -0.0017    Z=              0.0009  Tot=              0.3780
 Quadrupole moment (field-independent basis, Debye-Ang):
   XX=            -34.2373   YY=            -34.5682   ZZ=            -38.5585
   XY=             -0.0013   XZ=              0.0006   YZ=              0.3977

  Exact polarizability:  69.207   0.000  69.212   0.007   1.582  34.734
 Approx polarizability: 104.999   0.002 105.308   0.016   2.450  51.089

                     1                      2                      3
                     A                      A                      A
 Frequencies --   190.6367               302.6134               480.9826
 Red. masses --     1.7792                 2.2141                 2.7299
 Frc consts  --     0.0381                 0.1195                 0.3721
 IR Inten    --     0.5294                 0.7737                 5.2815

                     4                      5                      6
                     A                      A                      A
 Frequencies --   519.8484               572.6233               674.7137
 Red. masses --     2.1597                 5.4063                 1.2804
 Frc consts  --     0.3439                 1.0445                 0.3434
 IR Inten    --     0.2299                 0.1707                51.8242

                     7                      8                      9
                     A                      A                      A
 Frequencies --   765.4330               781.5179               858.7280
 Red. masses --     1.6602                 1.4981                 3.3419
 Frc consts  --     0.5731                 0.5391                 1.4520
 IR Inten    --     7.9898                 0.7875                 0.5534

                    10                     11                     12
                     A                      A                      A
 Frequencies --   938.8041               971.2084               972.4634
 Red. masses --     2.2656                 2.7561                 1.3141
 Frc consts  --     1.1765                 1.5317                 0.7322
 IR Inten    --     5.4417                 0.6599                 2.1919

                    13                     14                     15
                     A                      A                      A
 Frequencies --   989.3242              1012.7344              1053.7948
 Red. masses --     1.2512                 3.2622                 1.9906
 Frc consts  --     0.7215                 1.9713                 1.3024
 IR Inten    --     0.0458                 2.6215                 1.1755

                    16                     17                     18
                     A                      A                      A
 Frequencies --  1078.3357              1182.5025              1201.1836
 Red. masses --     1.7057                 1.0323                 1.1376
 Frc consts  --     1.1686                 0.8504                 0.9671
 IR Inten    --     1.9557                 0.0075                 4.0097

                    19                     20                     21
                     A                      A                      A
 Frequencies --  1213.4083              1281.1436              1369.7693
 Red. masses --     1.1001                 1.2149                 1.2870
 Frc consts  --     0.9543                 1.1748                 1.4227
 IR Inten    --     0.9683                 5.0098                 0.5060

                    22                     23                     24
                     A                      A                      A
 Frequencies --  1379.2493              1418.7973              1455.8870
 Red. masses --     1.5667                 1.5878                 1.6790
 Frc consts  --     1.7560                 1.8832                 2.0968
 IR Inten    --     2.7547                 1.4598                 0.0673

                    25                     26                     27
                     A                      A                      A
 Frequencies --  1499.7854              1511.1072              1659.7067
 Red. masses --     1.0805                 1.1069                 7.0667
 Frc consts  --     1.4319                 1.4892                11.4691
 IR Inten    --     1.7381                 2.1521                 1.6233

                    28                     29                     30
                     A                      A                      A
 Frequencies --  1724.7197              2981.1778              2992.3605
 Red. masses --     5.3672                 1.0749                 1.0699
 Frc consts  --     9.4067                 5.6283                 5.6446
 IR Inten    --     0.5266                14.9388                62.9777

                    31                     32                     33
                     A                      A                      A
 Frequencies --  3076.7152              3077.0274              3166.9875
 Red. masses --     1.0915                 1.0867                 1.0837
 Frc consts  --     6.0879                 6.0622                 6.4039
 IR Inten    --    27.2600                40.0441                 0.2083

                    34                     35                     36
                     A                      A                      A
 Frequencies --  3174.0452              3188.5800              3197.9210
 Red. masses --     1.0859                 1.0965                 1.0986
 Frc consts  --     6.4455                 6.5681                 6.6196
 IR Inten    --     7.3712                58.3146                23.5095

 - Thermochemistry -
 -------------------
 Temperature   298.150 Kelvin.  Pressure   1.00000 Atm.
 Atom     1 has atomic number  6 and mass  12.00000

 Molecular mass:    80.06260 amu.
 Principal axes and moments of inertia in atomic units:
                           1         2         3
     Eigenvalues --   357.10062 358.02172 675.08125
           X            0.99971  -0.02411  -0.00001
           Y            0.02411   0.99971   0.00106
           Z           -0.00001  -0.00106   1.00000
 This molecule is an asymmetric top.
 Rotational symmetry number  1.
 Rotational temperatures (Kelvin)      0.24255     0.24192     0.12830
 Rotational constants (GHZ):           5.05387     5.04087     2.67337
 Zero-point vibrational energy     322488.3 (Joules/Mol)
                                   77.07656 (Kcal/Mol)
 Warning -- explicit consideration of   5 degrees of freedom as
           vibrations may cause significant error
 Vibrational temperatures:    274.28   435.39   692.03   747.94   823.88
          (Kelvin)            970.76  1101.29  1124.43  1235.52  1350.73
                             1397.35  1399.16  1423.42  1457.10  1516.17
                             1551.48  1701.36  1728.23  1745.82  1843.28
                             1970.79  1984.43  2041.33  2094.69  2157.85
                             2174.14  2387.94  2481.48  4289.24  4305.33
                             4426.70  4427.15  4556.58  4566.74  4587.65
                             4601.09

 Zero-point correction=                           0.122829 (Hartree/Particle)
 Thermal correction to Energy=                    0.128003
 Thermal correction to Enthalpy=                  0.128947
 Thermal correction to Gibbs Free Energy=         0.094578
 Sum of electronic and zero-point Energies=           -233.296107
 Sum of electronic and thermal Energies=              -233.290933
 Sum of electronic and thermal Enthalpies=            -233.289989
 Sum of electronic and thermal Free Energies=         -233.324358

                     E (Thermal)             CV                S
                      KCal/Mol        Cal/Mol-Kelvin    Cal/Mol-Kelvin
 Total                   80.323             19.957             72.335
 Electronic               0.000              0.000              0.000
 Translational            0.889              2.981             39.055
 Rotational               0.889              2.981             25.959
 Vibrational             78.546             13.995              7.321
 Vibration     1          0.634              1.853              2.222
 Vibration     2          0.694              1.669              1.402
 Vibration     3          0.837              1.292              0.707
 Vibration     4          0.875              1.206              0.610
 Vibration     5          0.929              1.090              0.499

 Optimization completed.
    -- Stationary point found.
 Normal termination of Gaussian 09 at Tue Mar  2 15:35:00 2021.
 Normal termination of Gaussian 09 at Tue Mar  2 15:30:13 2021.
