 Gaussian 09, Revision C.01,
 Gaussian 09:  EM64L-G09RevC.01 23-Sep-2011

 -----------------------------------------
 # opt freq b3lyp/6-31g* geom=connectivity
 -----------------------------------------

 99/9=1/99;
 -------------------
 Title Card Required
 -------------------
 Charge =  0 Multiplicity = 1

 SCF Done:  E(RB3LYP) =  -233.216726039     A.U. after   14 cycles
 SCF Done:  E(RB3LYP) =  -233.290529486     A.U. after   15 cycles
 SCF Done:  E(RB3LYP) =  -233.345107878     A.U. after   13 cycles
 SCF Done:  E(RB3LYP) =  -233.362907724     A.U. after   12 cycles
 SCF Done:  E(RB3LYP) =  -233.379677842     A.U. after   13 cycles
 SCF Done:  E(RB3LYP) =  -233.384438412     A.U. after   12 cycles
 SCF Done:  E(RB3LYP) =  -233.386355158     A.U. after   11 cycles
 SCF Done:  E(RB3LYP) =  -233.386637716     A.U. after   11 cycles
 SCF Done:  E(RB3LYP) =  -233.386776421     A.U. after   10 cycles
 SCF Done:  E(RB3LYP) =  -233.386802329     A.U. after    9 cycles
 SCF Done:  E(RB3LYP) =  -233.386812268     A.U. after    8 cycles
 SCF Done:  E(RB3LYP) =  -233.386820361     A.U. after    8 cycles
 SCF Done:  E(RB3LYP) =  -233.386822872     A.U. after    8 cycles
 Optimization completed.
    -- Stationary point found.
 Normal termination of Gaussian 09 at Tue Mar  2 15:15:02 2021.

 --------------------------------------------------------------------
 #N Geom=AllCheck Guess=TCheck SCRF=Check GenChk RB3LYP/6-31G(d) Freq
 --------------------------------------------------------------------

 Structure from the checkpoint file:  hex02.chk
 -------------------
 Title Card Required
 -------------------
 Charge =  0 Multiplicity = 1

                         Standard orientation:
 ---------------------------------------------------------------------
 Center     Atomic      Atomic             Coordinates (Angstroms)
 Number     Number       Type             X           Y           Z
 ---------------------------------------------------------------------
      1          6           0        2.454858    1.125554    0.000000
      2          1           0        2.454226    2.213562    0.000000
      3          1           0        3.425475    0.638922    0.000000
      4          6           0        1.309814    0.421871    0.000000
      5          1           0        1.369336   -0.661520    0.000000
      6          6           0        0.000000    1.047359    0.000000
      7          1           0        0.026867    2.137473    0.000000
      8          6           0       -1.233672    0.482967    0.000000
      9          1           0       -2.059061    1.193738    0.000000
     10          6           0       -1.688747   -0.908615    0.000000
     11          1           0       -2.775672   -0.995450    0.000000
     12          6           0       -1.005399   -2.065815    0.000000
     13          1           0        0.076110   -2.134307    0.000000
     14          1           0       -1.538416   -3.012350    0.000000
 ---------------------------------------------------------------------

 SCF Done:  E(RB3LYP) =  -233.386822872     A.U. after    1 cycles

 The electronic state is 1-A'.
 Alpha  occ. eigenvalues --  -10.19389 -10.19342 -10.19280 -10.19182 -10.18789
 Alpha  occ. eigenvalues --  -10.18389  -0.81285  -0.77175  -0.71815  -0.63033
 Alpha  occ. eigenvalues --   -0.57094  -0.53150  -0.47997  -0.45997  -0.42839
 Alpha  occ. eigenvalues --   -0.40970  -0.38346  -0.35541  -0.33473  -0.33321
 Alpha  occ. eigenvalues --   -0.28334  -0.21129
 Alpha virt. eigenvalues --   -0.05051   0.04080   0.09293   0.10313   0.12164
 Alpha virt. eigenvalues --    0.12715   0.15419   0.17793   0.18966   0.20642
 Alpha virt. eigenvalues --    0.26830   0.30212   0.33040   0.35267   0.36537

 Mulliken atomic charges:
              1
     1  C   -0.348815
     2  H    0.144990
     3  H    0.146772
     4  C   -0.048922
     5  H    0.131322
     6  C   -0.127120
     7  H    0.124797
     8  C   -0.154761
     9  H    0.126172
    10  C   -0.065488
    11  H    0.125951
    12  C   -0.348133
    13  H    0.149470
    14  H    0.143765
 Sum of Mulliken atomic charges =   0.00000

 Dipole moment (field-independent basis, Debye):
    X=              0.0997    Y=              0.0586    Z=              0.0000  Tot=              0.1157
 Quadrupole moment (field-independent basis, Debye-Ang):
   XX=            -32.7936   YY=            -33.3193   ZZ=            -40.8173
   XY=              0.0416   XZ=              0.0000   YZ=              0.0000

  Exact polarizability: 101.761  24.011  86.097   0.000   0.000  22.195
 Approx polarizability: 164.139  41.155 136.705   0.000   0.000  31.778

 ******    1 imaginary frequencies (negative Signs) ******

                     1                      2                      3
                    A"                     A"                     A'
 Frequencies --  -160.8041               126.8163               189.9134
 Red. masses --     1.5538                 2.2163                 3.4825
 Frc consts  --     0.0237                 0.0210                 0.0740
 IR Inten    --     0.0503                 0.2062                 0.1575

                     4                      5                      6
                    A'                     A"                     A'
 Frequencies --   320.1858               357.4124               437.4833
 Red. masses --     2.9069                 1.8540                 2.7505
 Frc consts  --     0.1756                 0.1395                 0.3102
 IR Inten    --     1.2403                 0.0211                 4.4847

                     7                      8                      9
                    A"                     A"                     A'
 Frequencies --   569.8064               730.6805               740.5758
 Red. masses --     1.2715                 1.8231                 3.1004
 Frc consts  --     0.2432                 0.5735                 1.0019
 IR Inten    --    19.8694                 0.1668                 7.3265

                    10                     11                     12
                    A"                     A'                     A"
 Frequencies --   841.3638               864.9236               912.2263
 Red. masses --     1.4956                 2.6813                 1.3595
 Frc consts  --     0.6238                 1.1818                 0.6666
 IR Inten    --     5.8222                 0.1446                33.8268

                    13                     14                     15
                    A"                     A'                     A"
 Frequencies --   931.6229               979.6578               990.4151
 Red. masses --     1.3776                 1.6172                 1.2442
 Frc consts  --     0.7045                 0.9145                 0.7191
 IR Inten    --    42.5797                 4.6572                 8.6132

                    16                     17                     18
                    A"                     A"                     A'
 Frequencies --  1030.2113              1047.2906              1111.7048
 Red. masses --     1.1378                 1.1202                 1.5645
 Frc consts  --     0.7115                 0.7239                 1.1392
 IR Inten    --     1.1939                16.5345                 7.6114

                    19                     20                     21
                    A'                     A'                     A'
 Frequencies --  1177.6341              1322.0839              1336.0820
 Red. masses --     1.8850                 1.1691                 1.3645
 Frc consts  --     1.5402                 1.2040                 1.4352
 IR Inten    --     0.2239                 0.1561                 2.7090

                    22                     23                     24
                    A'                     A'                     A'
 Frequencies --  1370.4449              1429.9688              1487.4601
 Red. masses --     1.2192                 1.2817                 1.2038
 Frc consts  --     1.3491                 1.5442                 1.5692
 IR Inten    --     0.6365                 0.4207                 4.2644

                    25                     26                     27
                    A'                     A'                     A'
 Frequencies --  1506.9231              1653.4950              1684.6998
 Red. masses --     1.4228                 5.2350                 3.8124
 Frc consts  --     1.9036                 8.4328                 6.3751
 IR Inten    --     2.9684                11.9969                 1.0721

                    28                     29                     30
                    A'                     A'                     A'
 Frequencies --  1720.5578              3136.0576              3145.0653
 Red. masses --     3.9233                 1.0833                 1.0867
 Frc consts  --     6.8429                 6.2774                 6.3330
 IR Inten    --     1.0585                 4.9625                21.2472

                    31                     32                     33
                    A'                     A'                     A'
 Frequencies --  3162.6124              3167.3104              3183.1868
 Red. masses --     1.0614                 1.0881                 1.0655
 Frc consts  --     6.2548                 6.4316                 6.3613
 IR Inten    --    10.2177                39.8558                 4.2152

                    34                     35                     36
                    A'                     A'                     A'
 Frequencies --  3215.1694              3249.4959              3267.5303
 Red. masses --     1.0910                 1.1148                 1.1102
 Frc consts  --     6.6447                 6.9356                 6.9837
 IR Inten    --     5.8117                16.9791                20.0033

 - Thermochemistry -
 -------------------
 Temperature   298.150 Kelvin.  Pressure   1.00000 Atm.
 Atom     1 has atomic number  6 and mass  12.00000

 Molecular mass:    80.06260 amu.
 Principal axes and moments of inertia in atomic units:
                           1         2         3
     Eigenvalues --   220.90379 895.777621116.68141
           X            0.82895  -0.55932   0.00000
           Y            0.55932   0.82895   0.00000
           Z            0.00000   0.00000   1.00000
 This molecule is an asymmetric top.
 Rotational symmetry number  1.
 Rotational temperatures (Kelvin)      0.39209     0.09669     0.07756
 Rotational constants (GHZ):           8.16981     2.01472     1.61616
    1 imaginary frequencies ignored.
 Zero-point vibrational energy     313410.0 (Joules/Mol)
                                   74.90680 (Kcal/Mol)
 Warning -- explicit consideration of   6 degrees of freedom as
           vibrations may cause significant error
 Vibrational temperatures:    182.46   273.24   460.68   514.24   629.44
          (Kelvin)            819.82  1051.28  1065.52  1210.53  1244.43
                             1312.49  1340.40  1409.51  1424.98  1482.24
                             1506.82  1599.49  1694.35  1902.18  1922.32
                             1971.76  2057.40  2140.12  2168.12  2379.01
                             2423.90  2475.50  4512.08  4525.04  4550.29
                             4557.05  4579.89  4625.91  4675.29  4701.24

 Zero-point correction=                           0.119372 (Hartree/Particle)
 Thermal correction to Energy=                    0.125328
 Thermal correction to Enthalpy=                  0.126272
 Thermal correction to Gibbs Free Energy=         0.089845
 Sum of electronic and zero-point Energies=           -233.267451
 Sum of electronic and thermal Energies=              -233.261495
 Sum of electronic and thermal Enthalpies=            -233.260551
 Sum of electronic and thermal Free Energies=         -233.296978

                     E (Thermal)             CV                S
                      KCal/Mol        Cal/Mol-Kelvin    Cal/Mol-Kelvin
 Total                   78.645             21.724             76.667
 Electronic               0.000              0.000              0.000
 Translational            0.889              2.981             39.055
 Rotational               0.889              2.981             26.894
 Vibrational             76.867             15.763             10.718
 Vibration     1          0.611              1.926              2.994
 Vibration     2          0.633              1.854              2.229
 Vibration     3          0.706              1.635              1.309
 Vibration     4          0.733              1.560              1.133
 Vibration     5          0.798              1.388              0.835
 Vibration     6          0.926              1.097              0.505

 Optimization completed.
    -- Stationary point found.
 Normal termination of Gaussian 09 at Tue Mar  2 15:15:58 2021.
