 Gaussian 09, Revision C.01,
 Gaussian 09:  EM64L-G09RevC.01 23-Sep-2011

 -----------------------------------------
 # opt freq b3lyp/6-31g* geom=connectivity
 -----------------------------------------

 99/9=1/99;
 -------------------
 Title Card Required
 -------------------
 Charge =  0 Multiplicity = 1

 SCF Done:  E(RB3LYP) =  -310.607786666     A.U. after   14 cycles
 SCF Done:  E(RB3LYP) =  -310.684427292     A.U. after   13 cycles
 SCF Done:  E(RB3LYP) =  -310.744348172     A.U. after   15 cycles
 SCF Done:  E(RB3LYP) =  -310.763404282     A.U. after   13 cycles
 SCF Done:  E(RB3LYP) =  -310.777675584     A.U. after   13 cycles
 SCF Done:  E(RB3LYP) =  -310.785296045     A.U. after   12 cycles
 SCF Done:  E(RB3LYP) =  -310.787432770     A.U. after   12 cycles
 SCF Done:  E(RB3LYP) =  -310.788078211     A.U. after   12 cycles
 SCF Done:  E(RB3LYP) =  -310.788252456     A.U. after   11 cycles
 SCF Done:  E(RB3LYP) =  -310.788311285     A.U. after   11 cycles
 SCF Done:  E(RB3LYP) =  -310.788325122     A.U. after    8 cycles
 SCF Done:  E(RB3LYP) =  -310.788333002     A.U. after    8 cycles
 SCF Done:  E(RB3LYP) =  -310.788341886     A.U. after    8 cycles
 Optimization completed.
    -- Stationary point found.
 Normal termination of Gaussian 09 at Tue Mar  2 16:04:21 2021.

 -----------------------------------------------------------------
 #N Geom=AllCheck Guess=TCheck SCRF=Check GenChk RB3LYP/6-31G Freq
 -----------------------------------------------------------------

 Structure from the checkpoint file:  oct07.chk
 -------------------
 Title Card Required
 -------------------
 Charge =  0 Multiplicity = 1

                         Standard orientation:
 ---------------------------------------------------------------------
 Center     Atomic      Atomic             Coordinates (Angstroms)
 Number     Number       Type             X           Y           Z
 ---------------------------------------------------------------------
      1          6           0        3.025776    1.239457    0.000000
      2          1           0        2.891649    0.161391    0.000000
      3          1           0        4.051781    1.591940    0.000000
      4          6           0        1.990904    2.103749    0.000000
      5          1           0        2.219755    3.168546    0.000000
      6          6           0        0.565472    1.785163    0.000000
      7          1           0       -0.104439    2.644924    0.000000
      8          6           0        0.000000    0.547380    0.000000
      9          1           0        0.645862   -0.323293    0.000000
     10          6           0       -1.429578    0.348599    0.000000
     11          1           0       -2.010362    1.271793    0.000000
     12          6           0       -2.151680   -0.809212    0.000000
     13          1           0       -3.232145   -0.674249    0.000000
     14          6           0       -1.758255   -2.217188    0.000000
     15          1           0       -2.613634   -2.893410    0.000000
     16          6           0       -0.541032   -2.799733    0.000000
     17          1           0       -0.452963   -3.881792    0.000000
     18          1           0        0.394858   -2.255141    0.000000
 ---------------------------------------------------------------------

 SCF Done:  E(RB3LYP) =  -310.722465071     A.U. after    1 cycles

 The electronic state is 1-A'.
 Alpha  occ. eigenvalues --  -10.19365 -10.19326 -10.19097 -10.19092 -10.19051
 Alpha  occ. eigenvalues --  -10.18917 -10.18274 -10.17949  -0.82493  -0.79655
 Alpha  occ. eigenvalues --   -0.75702  -0.71359  -0.64513  -0.59973  -0.54199
 Alpha  occ. eigenvalues --   -0.53635  -0.48601  -0.47567  -0.44646  -0.43345
 Alpha  occ. eigenvalues --   -0.41475  -0.37729  -0.36915  -0.35093  -0.34567
 Alpha  occ. eigenvalues --   -0.33517  -0.31133  -0.26078  -0.19932
 Alpha virt. eigenvalues --   -0.06595   0.00726   0.08428   0.08429   0.09680
 Alpha virt. eigenvalues --    0.10704   0.12760   0.14224   0.16079   0.17827
 Alpha virt. eigenvalues --    0.18584   0.19828   0.21802   0.27406   0.28460

 Mulliken atomic charges:
              1
     1  C   -0.289953
     2  H    0.127362
     3  H    0.130871
     4  C   -0.085625
     5  H    0.120031
     6  C   -0.145479
     7  H    0.120102
     8  C   -0.062265
     9  H    0.126063
    10  C   -0.121621
    11  H    0.117399
    12  C   -0.157451
    13  H    0.113035
    14  C   -0.067699
    15  H    0.116024
    16  C   -0.298447
    17  H    0.127146
    18  H    0.130506
 Sum of Mulliken atomic charges =   0.00000

 Dipole moment (field-independent basis, Debye):
    X=              0.0825    Y=              0.2592    Z=              0.0000  Tot=              0.2720
 Quadrupole moment (field-independent basis, Debye-Ang):
   XX=            -43.8172   YY=            -43.6470   ZZ=            -54.0618
   XY=              0.2534   XZ=              0.0000   YZ=              0.0000

  Exact polarizability: 138.514  36.072 137.985   0.000   0.000  25.820
 Approx polarizability: 224.794  56.537 228.468   0.000   0.000  32.672

 ******    2 imaginary frequencies (negative Signs) ******

                     1                      2                      3
                    A"                     A"                     A'
 Frequencies --  -155.2160               -29.3138               102.9923
 Red. masses --     1.5731                 2.1012                 3.8391
 Frc consts  --     0.0223                 0.0011                 0.0240
 IR Inten    --     0.0055                 0.0064                 0.1144

                     4                      5                      6
                    A"                     A"                     A'
 Frequencies --   125.4065               205.4827               249.3533
 Red. masses --     2.3868                 2.0303                 3.6374
 Frc consts  --     0.0221                 0.0505                 0.1333
 IR Inten    --     0.5215                 0.7500                 0.0012

                     7                      8                      9
                    A'                     A'                     A"
 Frequencies --   343.9412               406.1571               418.0880
 Red. masses --     3.6173                 3.1787                 1.9187
 Frc consts  --     0.2521                 0.3089                 0.1976
 IR Inten    --     3.6854                 1.8841                 5.7545

                    10                     11                     12
                    A'                     A"                     A"
 Frequencies --   605.6473               619.9942               683.7865
 Red. masses --     2.6899                 1.3869                 1.7980
 Frc consts  --     0.5813                 0.3141                 0.4953
 IR Inten    --     6.6226                 1.1599                17.6735

                    13                     14                     15
                    A'                     A"                     A'
 Frequencies --   750.9690               838.5564               907.4070
 Red. masses --     2.9334                 1.3904                 3.1885
 Frc consts  --     0.9747                 0.5761                 1.5468
 IR Inten    --     7.7901                12.4125                 2.1205

                    16                     17                     18
                    A"                     A"                     A"
 Frequencies --   918.0670               946.1787               956.9035
 Red. masses --     1.9517                 1.3748                 1.3783
 Frc consts  --     0.9692                 0.7252                 0.7436
 IR Inten    --     6.1044                35.5797                43.5421

                    19                     20                     21
                    A"                     A'                     A"
 Frequencies --   997.7768              1014.4214              1039.0617
 Red. masses --     1.1941                 2.5622                 1.1826
 Frc consts  --     0.7004                 1.5535                 0.7523
 IR Inten    --    50.6228                 2.1465                 8.6451

                    22                     23                     24
                    A"                     A"                     A'
 Frequencies --  1051.9264              1059.8633              1099.8800
 Red. masses --     1.1615                 1.1686                 1.6324
 Frc consts  --     0.7572                 0.7734                 1.1635
 IR Inten    --     7.1274                13.8364                 1.4245

                    25                     26                     27
                    A'                     A'                     A'
 Frequencies --  1132.6022              1185.3160              1329.2490
 Red. masses --     1.6089                 2.1771                 1.2036
 Frc consts  --     1.2160                 1.8021                 1.2530
 IR Inten    --    15.0216                 6.1026                 3.5618

                    28                     29                     30
                    A'                     A'                     A'
 Frequencies --  1345.8723              1363.7234              1391.8029
 Red. masses --     1.3463                 1.3310                 1.2581
 Frc consts  --     1.4368                 1.4584                 1.4359
 IR Inten    --     2.6500                 1.1669                 0.0567

                    31                     32                     33
                    A'                     A'                     A'
 Frequencies --  1407.9489              1499.1411              1503.8295
 Red. masses --     1.2475                 1.2478                 1.3003
 Frc consts  --     1.4570                 1.6523                 1.7326
 IR Inten    --     1.5689                 6.9571                 4.1220

                    34                     35                     36
                    A'                     A'                     A'
 Frequencies --  1518.0029              1647.7878              1654.2767
 Red. masses --     1.3942                 4.4618                 5.3590
 Frc consts  --     1.8928                 7.1377                 8.6408
 IR Inten    --     4.0795                10.9652                 7.7988

                    37                     38                     39
                    A'                     A'                     A'
 Frequencies --  1695.9998              1714.6002              3133.5949
 Red. masses --     3.4188                 3.7336                 1.0829
 Frc consts  --     5.7940                 6.4671                 6.2653
 IR Inten    --     0.1121                 1.9634                 6.6303

                    40                     41                     42
                    A'                     A'                     A'
 Frequencies --  3142.3206              3148.1334              3166.1669
 Red. masses --     1.0865                 1.0857                 1.0757
 Frc consts  --     6.3208                 6.3394                 6.3533
 IR Inten    --    29.1685                16.6949                35.7907

                    43                     44                     45
                    A'                     A'                     A'
 Frequencies --  3170.1093              3174.8559              3186.6361
 Red. masses --     1.0886                 1.0770                 1.0672
 Frc consts  --     6.4458                 6.3959                 6.3849
 IR Inten    --    57.6575                 5.5470                 5.2635

                    46                     47                     48
                    A'                     A'                     A'
 Frequencies --  3226.4716              3258.1372              3277.3876
 Red. masses --     1.0886                 1.1142                 1.1085
 Frc consts  --     6.6770                 6.9685                 7.0155
 IR Inten    --    15.0902                21.6105                25.2895

 - Thermochemistry -
 -------------------
 Temperature   298.150 Kelvin.  Pressure   1.00000 Atm.
 Atom     1 has atomic number  6 and mass  12.00000

 Molecular mass:   106.07825 amu.
 Principal axes and moments of inertia in atomic units:
                           1         2         3
     Eigenvalues --   433.160161925.798672358.95884
           X            0.71360  -0.70055   0.00000
           Y            0.70055   0.71360   0.00000
           Z            0.00000   0.00000   1.00000
 This molecule is an asymmetric top.
 Rotational symmetry number  1.
 Warning -- assumption of classical behavior for rotation
           may cause significant error
 Rotational temperatures (Kelvin)      0.19996     0.04498     0.03672
 Rotational constants (GHZ):           4.16645     0.93714     0.76506
    2 imaginary frequencies ignored.
 Zero-point vibrational energy     404432.5 (Joules/Mol)
                                   96.66168 (Kcal/Mol)
 Warning -- explicit consideration of   9 degrees of freedom as
           vibrations may cause significant error
 Vibrational temperatures:    148.18   180.43   295.64   358.76   494.85
          (Kelvin)            584.37   601.53   871.39   892.03   983.82
                             1080.48  1206.49  1305.55  1320.89  1361.34
                             1376.77  1435.58  1459.52  1494.98  1513.49
                             1524.91  1582.48  1629.56  1705.40  1912.49
                             1936.41  1962.09  2002.49  2025.72  2156.93
                             2163.67  2184.06  2370.80  2380.13  2440.16
                             2466.92  4508.54  4521.09  4529.46  4555.40
                             4561.07  4567.90  4584.85  4642.17  4687.73
                             4715.42

 Zero-point correction=                           0.154040 (Hartree/Particle)
 Thermal correction to Energy=                    0.161365
 Thermal correction to Enthalpy=                  0.162309
 Thermal correction to Gibbs Free Energy=         0.121894
 Sum of electronic and zero-point Energies=           -310.568425
 Sum of electronic and thermal Energies=              -310.561100
 Sum of electronic and thermal Enthalpies=            -310.560156
 Sum of electronic and thermal Free Energies=         -310.600571

                     E (Thermal)             CV                S
                      KCal/Mol        Cal/Mol-Kelvin    Cal/Mol-Kelvin
 Total                  101.258             27.373             85.061
 Electronic               0.000              0.000              0.000
 Translational            0.889              2.981             39.894
 Rotational               0.889              2.981             29.066
 Vibrational             99.481             21.411             16.101
 Vibration     1          0.605              1.947              3.397
 Vibration     2          0.610              1.928              3.015
 Vibration     3          0.640              1.832              2.083
 Vibration     4          0.662              1.764              1.735
 Vibration     5          0.723              1.588              1.194
 Vibration     6          0.771              1.457              0.940
 Vibration     7          0.781              1.431              0.898
 Vibration     8          0.964              1.020              0.440
 Vibration     9          0.980              0.990              0.417

 Optimization completed.
    -- Stationary point found.
 Normal termination of Gaussian 09 at Tue Mar  2 16:06:11 2021.
