 Gaussian 09, Revision C.01,
 Gaussian 09:  EM64L-G09RevC.01 23-Sep-2011

 ------------------------
 # freq rb3lyp/6-31g* opt
 ------------------------

 99/9=1/99;
 -------------------
 Title Card Required
 -------------------
 Charge =  0 Multiplicity = 1

 SCF Done:  E(RB3LYP) =  -310.793889542     A.U. after   14 cycles
 Optimization completed.
    -- Stationary point found.
 Normal termination of Gaussian 09 at Tue Mar  2 15:41:01 2021.

 --------------------------------------------------------------------
 #N Geom=AllCheck Guess=TCheck SCRF=Check GenChk RB3LYP/6-31G(d) Freq
 --------------------------------------------------------------------

 Structure from the checkpoint file:  oct04.chk
 -------------------
 Title Card Required
 -------------------
 Charge =  0 Multiplicity = 1

                         Standard orientation:
 ---------------------------------------------------------------------
 Center     Atomic      Atomic             Coordinates (Angstroms)
 Number     Number       Type             X           Y           Z
 ---------------------------------------------------------------------
      1          6           0        3.654790    1.700708    0.000000
      2          1           0        4.080279    0.699706    0.000000
      3          1           0        4.356546    2.528923    0.000000
      4          6           0        2.325225    1.899863    0.000000
      5          1           0        1.940821    2.920558    0.000000
      6          6           0        1.337421    0.841838    0.000000
      7          1           0        1.721093   -0.178191    0.000000
      8          6           0        0.000000    1.064549    0.000000
      9          1           0       -0.329981    2.103611    0.000000
     10          6           0       -1.066881    0.079007    0.000000
     11          1           0       -2.073186    0.495416    0.000000
     12          6           0       -0.935653   -1.269493    0.000000
     13          1           0        0.067731   -1.692477    0.000000
     14          6           0       -2.017335   -2.251185    0.000000
     15          1           0       -1.687590   -3.289756    0.000000
     16          6           0       -3.341147   -2.020078    0.000000
     17          1           0       -3.762561   -1.018237    0.000000
     18          1           0       -4.051672   -2.840807    0.000000
 ---------------------------------------------------------------------

 SCF Done:  E(RB3LYP) =  -310.793889542     A.U. after    1 cycles

 The electronic state is 1-A'.
 Alpha  occ. eigenvalues --  -10.19386 -10.19352 -10.19345 -10.19297 -10.19235
 Alpha  occ. eigenvalues --  -10.19193 -10.18401 -10.18335  -0.82169  -0.79495
 Alpha  occ. eigenvalues --   -0.75483  -0.70390  -0.64120  -0.58202  -0.56142
 Alpha  occ. eigenvalues --   -0.51985  -0.48983  -0.46744  -0.44304  -0.43016
 Alpha  occ. eigenvalues --   -0.39803  -0.38741  -0.35671  -0.35187  -0.34367
 Alpha  occ. eigenvalues --   -0.34339  -0.31083  -0.26000  -0.19572
 Alpha virt. eigenvalues --   -0.06391   0.01363   0.07420   0.08978   0.10874
 Alpha virt. eigenvalues --    0.12385   0.12820   0.13091   0.14388   0.16574
 Alpha virt. eigenvalues --    0.18639   0.19939   0.21552   0.24041   0.29348

 Mulliken atomic charges:
              1
     1  C   -0.358800
     2  H    0.141001
     3  H    0.144866
     4  C   -0.056881
     5  H    0.126935
     6  C   -0.098912
     7  H    0.126564
     8  C   -0.150384
     9  H    0.124765
    10  C   -0.122094
    11  H    0.124704
    12  C   -0.125741
    13  H    0.125764
    14  C   -0.076078
    15  H    0.126927
    16  C   -0.339187
    17  H    0.141697
    18  H    0.144854
 Sum of Mulliken atomic charges =   0.00000

 Dipole moment (field-independent basis, Debye):
    X=             -0.0136    Y=              0.0071    Z=              0.0000  Tot=              0.0154
 Quadrupole moment (field-independent basis, Debye-Ang):
   XX=            -44.4279   YY=            -43.5181   ZZ=            -53.6641
   XY=             -0.4521   XZ=              0.0000   YZ=              0.0000

  Exact polarizability: 194.856  62.232 116.525   0.000   0.000  29.017
 Approx polarizability: 322.297  91.829 177.172   0.000   0.000  42.287

 ******    1 imaginary frequencies (negative Signs) ******

                     1                      2                      3
                    A"                     A"                     A'
 Frequencies --   -48.5974                30.9707               102.6832
 Red. masses --     2.0206                 1.7975                 3.6115
 Frc consts  --     0.0028                 0.0010                 0.0224
 IR Inten    --     0.0790                 0.0008                 0.1827

                     4                      5                      6
                    A"                     A"                     A'
 Frequencies --   124.8050               181.3343               220.7342
 Red. masses --     2.1301                 2.7481                 3.3609
 Frc consts  --     0.0195                 0.0532                 0.0965
 IR Inten    --     1.2560                 0.0864                 1.0636

                     7                      8                      9
                    A'                     A"                     A'
 Frequencies --   290.1449               350.4525               469.0447
 Red. masses --     3.6825                 2.1392                 3.0156
 Frc consts  --     0.1826                 0.1548                 0.3909
 IR Inten    --     6.2342                 0.0935                 5.5071

                    10                     11                     12
                    A'                     A"                     A"
 Frequencies --   525.8651               626.6664               659.0489
 Red. masses --     2.8638                 1.3976                 1.4854
 Frc consts  --     0.4666                 0.3234                 0.3801
 IR Inten    --    14.8373                 7.2722                 0.2637

                    13                     14                     15
                    A'                     A"                     A"
 Frequencies --   691.2180               855.8148               905.4731
 Red. masses --     3.4561                 1.8772                 1.7301
 Frc consts  --     0.9729                 0.8101                 0.8357
 IR Inten    --     0.2357                 4.6944                 5.3148

                    16                     17                     18
                    A"                     A"                     A'
 Frequencies --   913.6533               919.0831               952.4012
 Red. masses --     1.4077                 1.5935                 1.8058
 Frc consts  --     0.6923                 0.7931                 0.9651
 IR Inten    --    50.3993                14.5446                 0.0825

                    19                     20                     21
                    A"                     A'                     A"
 Frequencies --   986.2824               999.4513              1015.6090
 Red. masses --     1.1389                 2.1242                 1.1082
 Frc consts  --     0.6528                 1.2502                 0.6735
 IR Inten    --    13.9320                 0.3610                23.6399

                    22                     23                     24
                    A"                     A'                     A"
 Frequencies --  1037.2493              1048.0228              1053.9186
 Red. masses --     1.1181                 1.7057                 1.0958
 Frc consts  --     0.7088                 1.1038                 0.7171
 IR Inten    --     9.5416                 2.5814                28.9108

                    25                     26                     27
                    A'                     A'                     A'
 Frequencies --  1141.5798              1217.6116              1309.7412
 Red. masses --     1.7039                 2.2952                 1.3209
 Frc consts  --     1.3083                 2.0049                 1.3350
 IR Inten    --    10.9721                 5.9140                 0.4546

                    28                     29                     30
                    A'                     A'                     A'
 Frequencies --  1321.9101              1332.4127              1358.0437
 Red. masses --     1.4203                 1.3489                 1.2991
 Frc consts  --     1.4623                 1.4109                 1.4117
 IR Inten    --     0.3228                 1.9867                 3.6136

                    31                     32                     33
                    A'                     A'                     A'
 Frequencies --  1371.2518              1386.0089              1475.4745
 Red. masses --     1.4512                 1.3632                 1.2600
 Frc consts  --     1.6077                 1.5430                 1.6161
 IR Inten    --    18.5362                 2.0563                 0.4135

                    34                     35                     36
                    A'                     A'                     A'
 Frequencies --  1478.8298              1635.5091              1674.1600
 Red. masses --     1.2726                 4.4049                 3.7738
 Frc consts  --     1.6397                 6.9422                 6.2319
 IR Inten    --     3.1095                 7.1726                 5.0581

                    37                     38                     39
                    A'                     A'                     A'
 Frequencies --  1701.4823              1717.1266              3145.3164
 Red. masses --     3.8389                 4.0705                 1.0878
 Frc consts  --     6.5480                 7.0713                 6.3408
 IR Inten    --     6.1673                 0.1027                 3.1668

                    40                     41                     42
                    A'                     A'                     A'
 Frequencies --  3147.8794              3151.6651              3162.4092
 Red. masses --     1.0845                 1.0846                 1.0876
 Frc consts  --     6.3314                 6.3474                 6.4086
 IR Inten    --     3.0763                54.6943                16.7739

                    43                     44                     45
                    A'                     A'                     A'
 Frequencies --  3165.3782              3166.4317              3173.1835
 Red. masses --     1.0754                 1.0678                 1.0750
 Frc consts  --     6.3486                 6.3081                 6.3773
 IR Inten    --     1.4440                 5.1131                42.8898

                    46                     47                     48
                    A'                     A'                     A'
 Frequencies --  3174.5818              3249.7997              3250.1533
 Red. masses --     1.0849                 1.1157                 1.1159
 Frc consts  --     6.4421                 6.9421                 6.9451
 IR Inten    --    20.5278                15.7941                14.6787

 - Thermochemistry -
 -------------------
 Temperature   298.150 Kelvin.  Pressure   1.00000 Atm.
 Atom     1 has atomic number  6 and mass  12.00000

 Molecular mass:   106.07825 amu.
 Principal axes and moments of inertia in atomic units:
                           1         2         3
     Eigenvalues --   178.280712703.492922881.77364
           X            0.82773  -0.56112   0.00000
           Y            0.56112   0.82773   0.00000
           Z            0.00000   0.00000   1.00000
 This molecule is an asymmetric top.
 Rotational symmetry number  1.
 Rotational temperatures (Kelvin)      0.48583     0.03204     0.03006
 Rotational constants (GHZ):          10.12303     0.66756     0.62626
    1 imaginary frequencies ignored.
 Zero-point vibrational energy     399958.7 (Joules/Mol)
                                   95.59241 (Kcal/Mol)
 Warning -- explicit consideration of   9 degrees of freedom as
           vibrations may cause significant error
 Vibrational temperatures:     44.56   147.74   179.57   260.90   317.59
          (Kelvin)            417.45   504.22   674.85   756.60   901.63
                              948.22   994.51  1231.33  1302.77  1314.54
                             1322.35  1370.29  1419.04  1437.99  1461.23
                             1492.37  1507.87  1516.35  1642.48  1751.87
                             1884.42  1901.93  1917.04  1953.92  1972.92
                             1994.16  2122.88  2127.70  2353.13  2408.74
                             2448.05  2470.56  4525.40  4529.09  4534.54
                             4550.00  4554.27  4555.78  4565.50  4567.51
                             4675.73  4676.24

 Zero-point correction=                           0.152336 (Hartree/Particle)
 Thermal correction to Energy=                    0.160799
 Thermal correction to Enthalpy=                  0.161743
 Thermal correction to Gibbs Free Energy=         0.118223
 Sum of electronic and zero-point Energies=           -310.641553
 Sum of electronic and thermal Energies=              -310.633091
 Sum of electronic and thermal Enthalpies=            -310.632147
 Sum of electronic and thermal Free Energies=         -310.675667

                     E (Thermal)             CV                S
                      KCal/Mol        Cal/Mol-Kelvin    Cal/Mol-Kelvin
 Total                  100.903             30.091             91.596
 Electronic               0.000              0.000              0.000
 Translational            0.889              2.981             39.894
 Rotational               0.889              2.981             28.720
 Vibrational             99.125             24.129             22.982
 Vibration     1          0.594              1.984              5.766
 Vibration     2          0.605              1.947              3.403
 Vibration     3          0.610              1.928              3.025
 Vibration     4          0.630              1.865              2.315
 Vibration     5          0.647              1.810              1.953
 Vibration     6          0.686              1.692              1.473
 Vibration     7          0.727              1.574              1.164
 Vibration     8          0.826              1.319              0.740
 Vibration     9          0.881              1.193              0.597

 Optimization completed.
    -- Stationary point found.
 Normal termination of Gaussian 09 at Tue Mar  2 15:43:03 2021.
