 Gaussian 09, Revision C.01,
 Gaussian 09:  EM64L-G09RevC.01 23-Sep-2011

 -----------------------------------------
 # opt freq b3lyp/6-31g* geom=connectivity
 -----------------------------------------

 99/9=1/99;
 -------------------
 Title Card Required
 -------------------
 Charge =  0 Multiplicity = 1

 SCF Done:  E(RB3LYP) =  -310.776879174     A.U. after   14 cycles
 SCF Done:  E(RB3LYP) =  -310.796492822     A.U. after   14 cycles
 SCF Done:  E(RB3LYP) =  -310.799041616     A.U. after   13 cycles
 SCF Done:  E(RB3LYP) =  -310.799892226     A.U. after   11 cycles
 SCF Done:  E(RB3LYP) =  -310.799908899     A.U. after    8 cycles
 SCF Done:  E(RB3LYP) =  -310.799909874     A.U. after    8 cycles
 Optimization completed.
    -- Stationary point found.
 Normal termination of Gaussian 09 at Tue Mar  2 15:29:27 2021.

 --------------------------------------------------------------------
 #N Geom=AllCheck Guess=TCheck SCRF=Check GenChk RB3LYP/6-31G(d) Freq
 --------------------------------------------------------------------

 Structure from the checkpoint file:  oct01.chk
 -------------------
 Title Card Required
 -------------------
 Charge =  0 Multiplicity = 1

                         Standard orientation:
 ---------------------------------------------------------------------
 Center     Atomic      Atomic             Coordinates (Angstroms)
 Number     Number       Type             X           Y           Z
 ---------------------------------------------------------------------
      1          6           0        0.527478    4.164042    0.000000
      2          1           0        1.613519    4.103588    0.000000
      3          1           0        0.094420    5.159470    0.000000
      4          6           0       -0.238376    3.059413    0.000000
      5          1           0       -1.323744    3.166161    0.000000
      6          6           0        0.273948    1.705510    0.000000
      7          1           0        1.358705    1.590393    0.000000
      8          6           0       -0.504438    0.595066    0.000000
      9          1           0       -1.589014    0.714705    0.000000
     10          6           0        0.000000   -0.754121    0.000000
     11          1           0        1.084250   -0.867202    0.000000
     12          6           0       -0.788556   -1.856480    0.000000
     13          1           0       -1.867598   -1.702212    0.000000
     14          6           0       -0.355122   -3.250545    0.000000
     15          1           0       -1.164897   -3.979596    0.000000
     16          6           0        0.904457   -3.718649    0.000000
     17          1           0        1.773148   -3.065158    0.000000
     18          1           0        1.104865   -4.785572    0.000000
 ---------------------------------------------------------------------

 SCF Done:  E(RB3LYP) =  -310.799909874     A.U. after    1 cycles

 The electronic state is 1-A'.
 Alpha  occ. eigenvalues --  -10.19383 -10.19342 -10.19336 -10.19312 -10.19254
 Alpha  occ. eigenvalues --  -10.19224 -10.18408 -10.18352  -0.82280  -0.79598
 Alpha  occ. eigenvalues --   -0.75651  -0.70707  -0.63455  -0.58191  -0.55822
 Alpha  occ. eigenvalues --   -0.52917  -0.48868  -0.46689  -0.44300  -0.42998
 Alpha  occ. eigenvalues --   -0.39642  -0.38563  -0.35985  -0.35371  -0.34574
 Alpha  occ. eigenvalues --   -0.34461  -0.31129  -0.26105  -0.19630
 Alpha virt. eigenvalues --   -0.06053   0.01378   0.08200   0.09215   0.11040
 Alpha virt. eigenvalues --    0.11599   0.12453   0.12746   0.15623   0.16103
 Alpha virt. eigenvalues --    0.18563   0.19688   0.20368   0.20900   0.29344

 Mulliken atomic charges:
              1
     1  C   -0.355848
     2  H    0.141236
     3  H    0.144686
     4  C   -0.059792
     5  H    0.126439
     6  C   -0.124884
     7  H    0.124072
     8  C   -0.120954
     9  H    0.124682
    10  C   -0.097108
    11  H    0.125199
    12  C   -0.149854
    13  H    0.124371
    14  C   -0.076508
    15  H    0.127134
    16  C   -0.338884
    17  H    0.141199
    18  H    0.144814
 Sum of Mulliken atomic charges =   0.00000

 Dipole moment (field-independent basis, Debye):
    X=             -0.0989    Y=             -0.0316    Z=              0.0000  Tot=              0.1038
 Quadrupole moment (field-independent basis, Debye-Ang):
   XX=            -43.5936   YY=            -44.3854   ZZ=            -53.6916
   XY=              0.2001   XZ=              0.0000   YZ=              0.0000

  Exact polarizability:  84.030  10.901 238.252   0.000   0.000  29.113
 Approx polarizability: 137.562  36.668 386.730   0.000   0.000  42.475

 ******    1 imaginary frequencies (negative Signs) ******

                     1                      2                      3
                    A"                     A"                     A'
 Frequencies --   -42.3718                81.8726                90.5851
 Red. masses --     1.6391                 3.4068                 3.5769
 Frc consts  --     0.0017                 0.0135                 0.0173
 IR Inten    --     0.0145                 0.3576                 0.8772

                     4                      5                      6
                    A"                     A'                     A"
 Frequencies --   175.7366               218.1333               248.7448
 Red. masses --     2.2677                 3.3216                 2.1012
 Frc consts  --     0.0413                 0.0931                 0.0766
 IR Inten    --     0.3027                 1.9784                 0.5548

                     7                      8                      9
                    A'                     A"                     A'
 Frequencies --   327.7739               334.4904               434.2478
 Red. masses --     3.5870                 2.1483                 3.4647
 Frc consts  --     0.2271                 0.1416                 0.3849
 IR Inten    --     0.0384                 0.1480                 2.3960

                    10                     11                     12
                    A'                     A"                     A'
 Frequencies --   515.6872               634.4007               634.9266
 Red. masses --     2.8159                 1.3687                 2.6582
 Frc consts  --     0.4412                 0.3246                 0.6314
 IR Inten    --    12.2928                 9.4027                 1.9099

                    13                     14                     15
                    A"                     A"                     A"
 Frequencies --   672.2269               864.5863               910.1329
 Red. masses --     1.5205                 1.7444                 1.6427
 Frc consts  --     0.4048                 0.7683                 0.8017
 IR Inten    --     0.2587                 1.0083                 3.0015

                    16                     17                     18
                    A"                     A"                     A'
 Frequencies --   914.9060               921.2716               962.6297
 Red. masses --     1.4413                 1.6622                 1.6924
 Frc consts  --     0.7108                 0.8312                 0.9240
 IR Inten    --    52.9399                17.4524                 1.4722

                    19                     20                     21
                    A"                     A'                     A"
 Frequencies --   966.2572              1005.1491              1019.2458
 Red. masses --     1.1441                 2.1871                 1.0998
 Frc consts  --     0.6294                 1.3019                 0.6732
 IR Inten    --     0.0000                 0.3177                 9.4773

                    22                     23                     24
                    A"                     A"                     A'
 Frequencies --  1037.1448              1059.8089              1077.5100
 Red. masses --     1.1166                 1.0904                 1.5477
 Frc consts  --     0.7077                 0.7216                 1.0587
 IR Inten    --    10.5384                56.2691                 6.6727

                    25                     26                     27
                    A'                     A'                     A'
 Frequencies --  1189.6681              1220.9077              1273.9573
 Red. masses --     2.0610                 2.1461                 1.2943
 Frc consts  --     1.7186                 1.8848                 1.2376
 IR Inten    --     3.2482                 7.2002                 0.0150

                    28                     29                     30
                    A'                     A'                     A'
 Frequencies --  1323.5734              1330.8103              1342.8407
 Red. masses --     1.5803                 1.3506                 1.3591
 Frc consts  --     1.6311                 1.4094                 1.4439
 IR Inten    --     7.6644                 2.4827                 0.3278

                    31                     32                     33
                    A'                     A'                     A'
 Frequencies --  1364.6709              1378.1855              1474.7848
 Red. masses --     1.3557                 1.3522                 1.2438
 Frc consts  --     1.4875                 1.5132                 1.5939
 IR Inten    --     3.3688                 1.7011                 0.5626

                    34                     35                     36
                    A'                     A'                     A'
 Frequencies --  1478.8936              1650.0153              1666.6358
 Red. masses --     1.2954                 4.3905                 3.9192
 Frc consts  --     1.6693                 7.0428                 6.4140
 IR Inten    --     5.9908                 2.1443                 4.9611

                    37                     38                     39
                    A'                     A'                     A'
 Frequencies --  1705.0151              1712.0618              3143.6379
 Red. masses --     4.3807                 3.9049                 1.0891
 Frc consts  --     7.5033                 6.7438                 6.3412
 IR Inten    --    10.9582                 2.9324                 0.8949

                    40                     41                     42
                    A'                     A'                     A'
 Frequencies --  3145.2396              3146.7776              3154.7666
 Red. masses --     1.0863                 1.0873                 1.0856
 Frc consts  --     6.3313                 6.3438                 6.3661
 IR Inten    --     0.4092                17.6757                13.2165

                    43                     44                     45
                    A'                     A'                     A'
 Frequencies --  3159.3091              3165.1123              3165.9549
 Red. masses --     1.0825                 1.0821                 1.0648
 Frc consts  --     6.3661                 6.3870                 6.2883
 IR Inten    --    31.3236                63.7809                 7.0763

                    46                     47                     48
                    A'                     A'                     A'
 Frequencies --  3171.1609              3248.9445              3249.5806
 Red. masses --     1.0718                 1.1158                 1.1156
 Frc consts  --     6.3504                 6.9395                 6.9411
 IR Inten    --     6.6417                15.5660                15.3733

 - Thermochemistry -
 -------------------
 Temperature   298.150 Kelvin.  Pressure   1.00000 Atm.
 Atom     1 has atomic number  6 and mass  12.00000

 Molecular mass:   106.07825 amu.
 Principal axes and moments of inertia in atomic units:
                           1         2         3
     Eigenvalues --   163.820882891.730013055.55089
           X            0.01409   0.99990   0.00000
           Y            0.99990  -0.01409   0.00000
           Z            0.00000   0.00000   1.00000
 This molecule is an asymmetric top.
 Rotational symmetry number  1.
 Rotational temperatures (Kelvin)      0.52871     0.02995     0.02835
 Rotational constants (GHZ):          11.01655     0.62410     0.59064
    1 imaginary frequencies ignored.
 Zero-point vibrational energy     400569.4 (Joules/Mol)
                                   95.73838 (Kcal/Mol)
 Warning -- explicit consideration of   9 degrees of freedom as
           vibrations may cause significant error
 Vibrational temperatures:    117.80   130.33   252.85   313.84   357.89
          (Kelvin)            471.59   481.26   624.78   741.96   912.76
                              913.52   967.18  1243.95  1309.48  1316.34
                             1325.50  1385.01  1390.23  1446.18  1466.47
                             1492.22  1524.83  1550.29  1711.66  1756.61
                             1832.94  1904.32  1914.74  1932.05  1963.45
                             1982.90  2121.88  2127.80  2374.00  2397.91
                             2453.13  2463.27  4522.99  4525.29  4527.51
                             4539.00  4545.54  4553.88  4555.10  4562.59
                             4674.50  4675.42

 Zero-point correction=                           0.152569 (Hartree/Particle)
 Thermal correction to Energy=                    0.160778
 Thermal correction to Enthalpy=                  0.161722
 Thermal correction to Gibbs Free Energy=         0.119540
 Sum of electronic and zero-point Energies=           -310.647341
 Sum of electronic and thermal Energies=              -310.639132
 Sum of electronic and thermal Enthalpies=            -310.638188
 Sum of electronic and thermal Free Energies=         -310.680370

                     E (Thermal)             CV                S
                      KCal/Mol        Cal/Mol-Kelvin    Cal/Mol-Kelvin
 Total                  100.890             29.992             88.780
 Electronic               0.000              0.000              0.000
 Translational            0.889              2.981             39.894
 Rotational               0.889              2.981             28.761
 Vibrational             99.112             24.030             20.125
 Vibration     1          0.600              1.962              3.845
 Vibration     2          0.602              1.956              3.647
 Vibration     3          0.628              1.872              2.373
 Vibration     4          0.646              1.813              1.975
 Vibration     5          0.662              1.765              1.739
 Vibration     6          0.711              1.620              1.271
 Vibration     7          0.716              1.607              1.238
 Vibration     8          0.795              1.396              0.845
 Vibration     9          0.871              1.215              0.620

 Optimization completed.
    -- Stationary point found.
 Normal termination of Gaussian 09 at Tue Mar  2 15:34:05 2021.
