 Gaussian 09, Revision C.01,
 Gaussian 09:  EM64L-G09RevC.01 23-Sep-2011

 -----------------------------------------
 # opt freq b3lyp/6-31g* geom=connectivity
 -----------------------------------------

 99/9=1/99;
 -------------------
 Title Card Required
 -------------------
 Charge =  0 Multiplicity = 1

 SCF Done:  E(RB3LYP) =  -310.617310006     A.U. after   14 cycles
 SCF Done:  E(RB3LYP) =  -310.693017139     A.U. after   13 cycles
 SCF Done:  E(RB3LYP) =  -310.752556705     A.U. after   15 cycles
 SCF Done:  E(RB3LYP) =  -310.771113461     A.U. after   13 cycles
 SCF Done:  E(RB3LYP) =  -310.783858569     A.U. after   12 cycles
 SCF Done:  E(RB3LYP) =  -310.790894436     A.U. after   13 cycles
 SCF Done:  E(RB3LYP) =  -310.793005849     A.U. after   11 cycles
 SCF Done:  E(RB3LYP) =  -310.793712780     A.U. after   12 cycles
 SCF Done:  E(RB3LYP) =  -310.793867937     A.U. after   11 cycles
 SCF Done:  E(RB3LYP) =  -310.793933757     A.U. after   11 cycles
 SCF Done:  E(RB3LYP) =  -310.793947367     A.U. after    8 cycles
 SCF Done:  E(RB3LYP) =  -310.793954330     A.U. after    8 cycles
 SCF Done:  E(RB3LYP) =  -310.793960556     A.U. after    8 cycles
 Optimization completed.
    -- Stationary point found.
 Normal termination of Gaussian 09 at Tue Mar  2 15:36:24 2021.

 --------------------------------------------------------------------
 #N Geom=AllCheck Guess=TCheck SCRF=Check GenChk RB3LYP/6-31G(d) Freq
 --------------------------------------------------------------------

 Structure from the checkpoint file:  oct03.chk
 -------------------
 Title Card Required
 -------------------
 Charge =  0 Multiplicity = 1

                         Standard orientation:
 ---------------------------------------------------------------------
 Center     Atomic      Atomic             Coordinates (Angstroms)
 Number     Number       Type             X           Y           Z
 ---------------------------------------------------------------------
      1          6           0        3.344051   -1.047572    0.000000
      2          1           0        3.712759   -2.071149    0.000000
      3          1           0        4.091496   -0.260125    0.000000
      4          6           0        2.027253   -0.774508    0.000000
      5          1           0        1.718068    0.265796    0.000000
      6          6           0        1.007970   -1.805144    0.000000
      7          1           0        1.402404   -2.821554    0.000000
      8          6           0       -0.348159   -1.696683    0.000000
      9          1           0       -0.875877   -2.649558    0.000000
     10          6           0       -1.253648   -0.559106    0.000000
     11          1           0       -2.305661   -0.848251    0.000000
     12          6           0       -1.013363    0.776018    0.000000
     13          1           0        0.000000    1.167178    0.000000
     14          6           0       -2.072007    1.765522    0.000000
     15          1           0       -3.093000    1.381842    0.000000
     16          6           0       -1.871992    3.094618    0.000000
     17          1           0       -0.870967    3.520132    0.000000
     18          1           0       -2.699854    3.796819    0.000000
 ---------------------------------------------------------------------

 SCF Done:  E(RB3LYP) =  -310.793960556     A.U. after    1 cycles

 The electronic state is 1-A'.
 Alpha  occ. eigenvalues --  -10.19455 -10.19388 -10.19355 -10.19334 -10.19287
 Alpha  occ. eigenvalues --  -10.19271 -10.18820 -10.18410  -0.82053  -0.79597
 Alpha  occ. eigenvalues --   -0.75653  -0.71024  -0.63656  -0.58413  -0.55515
 Alpha  occ. eigenvalues --   -0.53744  -0.48359  -0.46773  -0.44322  -0.42011
 Alpha  occ. eigenvalues --   -0.41013  -0.38248  -0.36783  -0.35355  -0.34306
 Alpha  occ. eigenvalues --   -0.33395  -0.31173  -0.26079  -0.19890
 Alpha virt. eigenvalues --   -0.06176   0.01329   0.07492   0.08655   0.10871
 Alpha virt. eigenvalues --    0.12454   0.12733   0.13214   0.13562   0.17467
 Alpha virt. eigenvalues --    0.18371   0.19423   0.21524   0.26370   0.28193

 Mulliken atomic charges:
              1
     1  C   -0.349780
     2  H    0.145394
     3  H    0.146903
     4  C   -0.050214
     5  H    0.134700
     6  C   -0.130423
     7  H    0.125182
     8  C   -0.152109
     9  H    0.126215
    10  C   -0.145428
    11  H    0.123641
    12  C   -0.101309
    13  H    0.130780
    14  C   -0.057591
    15  H    0.127656
    16  C   -0.359330
    17  H    0.140566
    18  H    0.145149
 Sum of Mulliken atomic charges =   0.00000

 Dipole moment (field-independent basis, Debye):
    X=              0.1057    Y=             -0.0401    Z=              0.0000  Tot=              0.1131
 Quadrupole moment (field-independent basis, Debye-Ang):
   XX=            -43.2859   YY=            -44.1110   ZZ=            -53.7123
   XY=              0.1341   XZ=              0.0000   YZ=              0.0000

  Exact polarizability: 151.233 -43.353 142.568   0.000   0.000  28.999
 Approx polarizability: 240.487 -65.226 238.927   0.000   0.000  42.347

 ******    1 imaginary frequencies (negative Signs) ******

                     1                      2                      3
                    A"                     A'                     A"
 Frequencies --  -130.0502               110.2853               115.5856
 Red. masses --     1.5622                 3.7078                 2.0405
 Frc consts  --     0.0156                 0.0266                 0.0161
 IR Inten    --     0.0334                 0.3064                 0.1725

                     4                      5                      6
                    A"                     A'                     A"
 Frequencies --   140.5385               213.9894               234.9100
 Red. masses --     2.9146                 3.4044                 2.4981
 Frc consts  --     0.0339                 0.0918                 0.0812
 IR Inten    --     0.6009                 0.7745                 0.0116

                     7                      8                      9
                    A'                     A"                     A'
 Frequencies --   326.3734               442.4993               449.2029
 Red. masses --     3.2810                 1.8770                 2.8408
 Frc consts  --     0.2059                 0.2165                 0.3377
 IR Inten    --     7.7685                 4.0724                 0.6896

                    10                     11                     12
                    A'                     A"                     A"
 Frequencies --   491.1584               621.1958               694.8011
 Red. masses --     3.5284                 1.2341                 1.6371
 Frc consts  --     0.5015                 0.2806                 0.4656
 IR Inten    --     5.2097                 1.5087                11.9839

                    13                     14                     15
                    A'                     A"                     A"
 Frequencies --   748.1266               818.3580               892.0118
 Red. masses --     4.3518                 1.5355                 1.8243
 Frc consts  --     1.4351                 0.6059                 0.8552
 IR Inten    --     9.0787                10.3744                 1.1782

                    16                     17                     18
                    A'                     A"                     A"
 Frequencies --   917.4925               917.9095               928.6617
 Red. masses --     2.0054                 1.4332                 1.3820
 Frc consts  --     0.9946                 0.7114                 0.7022
 IR Inten    --     2.6567                31.9810                47.6646

                    19                     20                     21
                    A'                     A"                     A"
 Frequencies --   969.6488               982.1206               989.3188
 Red. masses --     1.5226                 1.1923                 1.1924
 Frc consts  --     0.8435                 0.6776                 0.6876
 IR Inten    --     0.3075                 6.6427                 1.7595

                    22                     23                     24
                    A"                     A'                     A"
 Frequencies --  1031.3782              1045.6617              1054.8279
 Red. masses --     1.1393                 2.1765                 1.1005
 Frc consts  --     0.7140                 1.4021                 0.7215
 IR Inten    --     1.1445                 0.3586                37.5206

                    25                     26                     27
                    A'                     A'                     A'
 Frequencies --  1170.4909              1218.4119              1301.7014
 Red. masses --     1.7208                 2.2013                 1.3805
 Frc consts  --     1.3891                 1.9254                 1.3782
 IR Inten    --     4.2236                 7.0521                 0.3735

                    28                     29                     30
                    A'                     A'                     A'
 Frequencies --  1323.4142              1334.6476              1359.4536
 Red. masses --     1.2280                 1.3766                 1.2867
 Frc consts  --     1.2672                 1.4447                 1.4010
 IR Inten    --     0.0320                 0.5775                 8.2357

                    31                     32                     33
                    A'                     A'                     A'
 Frequencies --  1378.2385              1432.2935              1478.0542
 Red. masses --     1.3029                 1.2996                 1.2625
 Frc consts  --     1.4582                 1.5708                 1.6251
 IR Inten    --     3.3302                 0.5504                 1.2077

                    34                     35                     36
                    A'                     A'                     A'
 Frequencies --  1506.7852              1636.5423              1665.3132
 Red. masses --     1.3961                 5.8582                 3.6207
 Frc consts  --     1.8676                 9.2442                 5.9161
 IR Inten    --     2.7005                 5.5026                 9.3060

                    37                     38                     39
                    A'                     A'                     A'
 Frequencies --  1687.1580              1717.6844              3133.0436
 Red. masses --     3.7877                 4.2988                 1.0846
 Frc consts  --     6.3523                 7.4728                 6.2726
 IR Inten    --     5.0680                 0.3893                12.6887

                    40                     41                     42
                    A'                     A'                     A'
 Frequencies --  3143.2349              3149.9999              3163.0222
 Red. masses --     1.0863                 1.0838                 1.0626
 Frc consts  --     6.3237                 6.3362                 6.2636
 IR Inten    --     7.4711                27.3811                11.5381

                    43                     44                     45
                    A'                     A'                     A'
 Frequencies --  3165.6728              3167.2593              3195.5209
 Red. masses --     1.0661                 1.0872                 1.0897
 Frc consts  --     6.2948                 6.4257                 6.5558
 IR Inten    --    15.2476                33.3654                 8.6714

                    46                     47                     48
                    A'                     A'                     A'
 Frequencies --  3220.0978              3249.3726              3250.6440
 Red. masses --     1.0879                 1.1156                 1.1140
 Frc consts  --     6.6461                 6.9398                 6.9356
 IR Inten    --     9.8877                15.2583                18.2590

 - Thermochemistry -
 -------------------
 Temperature   298.150 Kelvin.  Pressure   1.00000 Atm.
 Atom     1 has atomic number  6 and mass  12.00000

 Molecular mass:   106.07825 amu.
 Principal axes and moments of inertia in atomic units:
                           1         2         3
     Eigenvalues --   449.009492012.880112461.88961
           X            0.76422   0.64495   0.00000
           Y           -0.64495   0.76422   0.00000
           Z            0.00000   0.00000   1.00000
 This molecule is an asymmetric top.
 Rotational symmetry number  1.
 Warning -- assumption of classical behavior for rotation
           may cause significant error
 Rotational temperatures (Kelvin)      0.19290     0.04303     0.03518
 Rotational constants (GHZ):           4.01938     0.89660     0.73307
    1 imaginary frequencies ignored.
 Zero-point vibrational energy     401850.2 (Joules/Mol)
                                   96.04451 (Kcal/Mol)
 Warning -- explicit consideration of   9 degrees of freedom as
           vibrations may cause significant error
 Vibrational temperatures:    158.68   166.30   202.20   307.88   337.98
          (Kelvin)            469.58   636.66   646.30   706.67   893.76
                              999.66  1076.39  1177.43  1283.40  1320.07
                             1320.67  1336.14  1395.11  1413.05  1423.41
                             1483.92  1504.47  1517.66  1684.07  1753.02
                             1872.86  1904.10  1920.26  1955.95  1982.98
                             2060.75  2126.59  2167.93  2354.62  2396.01
                             2427.44  2471.36  4507.75  4522.41  4532.14
                             4550.88  4554.69  4556.97  4597.64  4633.00
                             4675.12  4676.95

 Zero-point correction=                           0.153057 (Hartree/Particle)
 Thermal correction to Energy=                    0.161128
 Thermal correction to Enthalpy=                  0.162072
 Thermal correction to Gibbs Free Energy=         0.120143
 Sum of electronic and zero-point Energies=           -310.640904
 Sum of electronic and thermal Energies=              -310.632833
 Sum of electronic and thermal Enthalpies=            -310.631889
 Sum of electronic and thermal Free Energies=         -310.673818

                     E (Thermal)             CV                S
                      KCal/Mol        Cal/Mol-Kelvin    Cal/Mol-Kelvin
 Total                  101.109             29.777             88.247
 Electronic               0.000              0.000              0.000
 Translational            0.889              2.981             39.894
 Rotational               0.889              2.981             29.188
 Vibrational             99.332             23.815             19.165
 Vibration     1          0.606              1.941              3.264
 Vibration     2          0.608              1.936              3.173
 Vibration     3          0.615              1.913              2.797
 Vibration     4          0.644              1.820              2.009
 Vibration     5          0.655              1.787              1.841
 Vibration     6          0.710              1.623              1.278
 Vibration     7          0.802              1.377              0.819
 Vibration     8          0.808              1.363              0.798
 Vibration     9          0.847              1.270              0.681

 Optimization completed.
    -- Stationary point found.
 Normal termination of Gaussian 09 at Tue Mar  2 15:38:30 2021.
