 Gaussian 09, Revision C.01,
 Gaussian 09:  EM64L-G09RevC.01 23-Sep-2011

 -----------------------------------------
 # opt freq b3lyp/6-31g* geom=connectivity
 -----------------------------------------

 99/9=1/99;
 -------------------
 Title Card Required
 -------------------
 Charge =  0 Multiplicity = 1

 SCF Done:  E(RB3LYP) =  -310.313951917     A.U. after   18 cycles
 SCF Done:  E(RB3LYP) =  -310.422471057     A.U. after   16 cycles
 SCF Done:  E(RB3LYP) =  -310.551978282     A.U. after   15 cycles
 SCF Done:  E(RB3LYP) =  -310.591421607     A.U. after   15 cycles
 SCF Done:  E(RB3LYP) =  -310.668436791     A.U. after   14 cycles
 SCF Done:  E(RB3LYP) =  -310.747482607     A.U. after   14 cycles
 SCF Done:  E(RB3LYP) =  -310.784944031     A.U. after   13 cycles
 SCF Done:  E(RB3LYP) =  -310.800771550     A.U. after   13 cycles
 SCF Done:  E(RB3LYP) =  -310.804344126     A.U. after   12 cycles
 SCF Done:  E(RB3LYP) =  -310.806532258     A.U. after   12 cycles
 SCF Done:  E(RB3LYP) =  -310.809949962     A.U. after   11 cycles
 SCF Done:  E(RB3LYP) =  -310.810004006     A.U. after   11 cycles
 SCF Done:  E(RB3LYP) =  -310.810033964     A.U. after   10 cycles
 SCF Done:  E(RB3LYP) =  -310.810054083     A.U. after   10 cycles
 SCF Done:  E(RB3LYP) =  -310.810061095     A.U. after   10 cycles
 SCF Done:  E(RB3LYP) =  -310.810063504     A.U. after    8 cycles
 SCF Done:  E(RB3LYP) =  -310.810064472     A.U. after    8 cycles
 SCF Done:  E(RB3LYP) =  -310.810064934     A.U. after    8 cycles
 SCF Done:  E(RB3LYP) =  -310.810065030     A.U. after    7 cycles
 Optimization completed.
    -- Stationary point found.
 Normal termination of Gaussian 09 at Tue Mar  2 16:21:21 2021.

 --------------------------------------------------------------------
 #N Geom=AllCheck Guess=TCheck SCRF=Check GenChk RB3LYP/6-31G(d) Freq
 --------------------------------------------------------------------

 Structure from the checkpoint file:  oct06.chk
 -------------------
 Title Card Required
 -------------------
 Charge =  0 Multiplicity = 1

                         Standard orientation:
 ---------------------------------------------------------------------
 Center     Atomic      Atomic             Coordinates (Angstroms)
 Number     Number       Type             X           Y           Z
 ---------------------------------------------------------------------
      1          6           0        2.898303    0.018019   -0.421215
      2          1           0        3.390700    0.060047    0.548936
      3          1           0        3.547589    0.007830   -1.292973
      4          6           0        1.569804   -0.019305   -0.532373
      5          1           0        1.109445   -0.055243   -1.519923
      6          6           0        0.603196    0.007342    0.634313
      7          1           0        1.196067    0.030039    1.557313
      8          6           0       -0.232665    1.274661    0.540209
      9          1           0        0.213104    2.201187    0.894511
     10          6           0       -1.430699    1.271118   -0.068105
     11          1           0       -1.990021    2.196055   -0.190834
     12          6           0       -1.474851   -1.160539   -0.277234
     13          1           0       -1.912654   -2.084691   -0.648088
     14          6           0       -0.306831   -1.246770    0.676969
     15          1           0        0.296093   -2.141176    0.480475
     16          1           0       -0.703339   -1.362990    1.699787
     17          6           0       -2.004678    0.030875   -0.599664
     18          1           0       -2.876463    0.096529   -1.246603
 ---------------------------------------------------------------------

 SCF Done:  E(RB3LYP) =  -310.810065030     A.U. after    1 cycles

 The electronic state is 1-A.
 Alpha  occ. eigenvalues --  -10.19504 -10.18667 -10.18438 -10.18425 -10.18370
 Alpha  occ. eigenvalues --  -10.18239 -10.18149 -10.17555  -0.84075  -0.77511
 Alpha  occ. eigenvalues --   -0.73775  -0.71634  -0.62024  -0.58714  -0.55624
 Alpha  occ. eigenvalues --   -0.50621  -0.48087  -0.44543  -0.43586  -0.42270
 Alpha  occ. eigenvalues --   -0.41038  -0.39249  -0.37497  -0.34515  -0.32888
 Alpha  occ. eigenvalues --   -0.31755  -0.30496  -0.25109  -0.20893
 Alpha virt. eigenvalues --   -0.02462   0.03092   0.09241   0.09934   0.12491
 Alpha virt. eigenvalues --    0.13473   0.14282   0.15410   0.16579   0.17730
 Alpha virt. eigenvalues --    0.18569   0.19988   0.20852   0.22919   0.25970

 Mulliken atomic charges:
              1
     1  C   -0.347949
     2  H    0.133537
     3  H    0.139043
     4  C   -0.030470
     5  H    0.137021
     6  C   -0.184512
     7  H    0.130355
     8  C   -0.121227
     9  H    0.131927
    10  C   -0.121419
    11  H    0.126074
    12  C   -0.128726
    13  H    0.128229
    14  C   -0.301606
    15  H    0.146761
    16  H    0.151961
    17  C   -0.113529
    18  H    0.124529
 Sum of Mulliken atomic charges =   0.00000

 Dipole moment (field-independent basis, Debye):
    X=             -0.0824    Y=             -0.1778    Z=              0.1577  Tot=              0.2515
 Quadrupole moment (field-independent basis, Debye-Ang):
   XX=            -47.3038   YY=            -47.2476   ZZ=            -47.9089
   XY=             -0.0367   XZ=              1.9618   YZ=              0.2212

  Exact polarizability: 103.867  -0.079  74.756  10.429   1.114  59.225
 Approx polarizability: 149.716  -0.332 117.039  22.459   2.238  89.050

                     1                      2                      3
                     A                      A                      A
 Frequencies --    91.5102               104.5103               227.1238
 Red. masses --     2.7230                 3.2305                 2.1856
 Frc consts  --     0.0134                 0.0208                 0.0664
 IR Inten    --     0.0039                 0.3607                 0.1296

                     4                      5                      6
                     A                      A                      A
 Frequencies --   297.4676               356.7636               373.2103
 Red. masses --     1.7554                 2.7548                 2.4686
 Frc consts  --     0.0915                 0.2066                 0.2026
 IR Inten    --     0.6339                 0.4423                 2.0373

                     7                      8                      9
                     A                      A                      A
 Frequencies --   517.3837               566.2349               621.2930
 Red. masses --     2.3218                 4.8810                 4.1373
 Frc consts  --     0.3662                 0.9220                 0.9409
 IR Inten    --     2.2247                 0.7166                 0.6796

                    10                     11                     12
                     A                      A                      A
 Frequencies --   666.2216               720.8880               793.3725
 Red. masses --     1.3574                 1.7236                 1.4942
 Frc consts  --     0.3550                 0.5277                 0.5541
 IR Inten    --    41.0769                24.6985                 4.6352

                    13                     14                     15
                     A                      A                      A
 Frequencies --   818.7646               887.4108               938.0471
 Red. masses --     2.4652                 2.6008                 1.3588
 Frc consts  --     0.9737                 1.2067                 0.7044
 IR Inten    --     4.6920                 1.5023                35.3476

                    16                     17                     18
                     A                      A                      A
 Frequencies --   939.5303               957.3476               976.9184
 Red. masses --     2.1954                 2.1420                 2.1945
 Frc consts  --     1.1418                 1.1567                 1.2340
 IR Inten    --     0.7618                 9.5720                 0.8603

                    19                     20                     21
                     A                      A                      A
 Frequencies --   980.7053               991.5405              1037.1037
 Red. masses --     1.4292                 1.2831                 1.6111
 Frc consts  --     0.8099                 0.7432                 1.0210
 IR Inten    --     0.6244                 0.6771                11.0778

                    22                     23                     24
                     A                      A                      A
 Frequencies --  1039.4593              1092.4695              1138.5566
 Red. masses --     1.4499                 1.8205                 1.8706
 Frc consts  --     0.9230                 1.2802                 1.4287
 IR Inten    --     2.6512                 1.9347                 3.6251

                    25                     26                     27
                     A                      A                      A
 Frequencies --  1184.3963              1213.1364              1256.1188
 Red. masses --     1.0430                 1.1014                 1.2121
 Frc consts  --     0.8620                 0.9550                 1.1268
 IR Inten    --     0.1343                 0.6930                 3.7350

                    28                     29                     30
                     A                      A                      A
 Frequencies --  1314.2247              1322.2038              1338.5281
 Red. masses --     1.3819                 1.5952                 1.2524
 Frc consts  --     1.4062                 1.6431                 1.3220
 IR Inten    --     3.0047                 1.4838                 1.6596

                    31                     32                     33
                     A                      A                      A
 Frequencies --  1370.6727              1412.4067              1455.3029
 Red. masses --     1.3012                 1.5441                 1.6849
 Frc consts  --     1.4403                 1.8148                 2.1025
 IR Inten    --     0.8565                 1.3580                 0.4370

                    34                     35                     36
                     A                      A                      A
 Frequencies --  1474.5188              1500.1065              1656.2387
 Red. masses --     1.2000                 1.0939                 7.2190
 Frc consts  --     1.5372                 1.4503                11.6674
 IR Inten    --     1.8576                 3.1455                 2.4058

                    37                     38                     39
                     A                      A                      A
 Frequencies --  1718.3750              1724.2824              2991.0466
 Red. masses --     4.7269                 4.9621                 1.0722
 Frc consts  --     8.2236                 8.6922                 5.6514
 IR Inten    --     4.1153                 1.6428                34.0971

                    40                     41                     42
                     A                      A                      A
 Frequencies --  3051.0234              3078.0663              3149.3816
 Red. masses --     1.0846                 1.0895                 1.0592
 Frc consts  --     5.9484                 6.0817                 6.1899
 IR Inten    --    26.9254                21.4338                16.6352

                    43                     44                     45
                     A                      A                      A
 Frequencies --  3161.1881              3168.6008              3176.2302
 Red. masses --     1.0908                 1.0839                 1.0860
 Frc consts  --     6.4225                 6.4116                 6.4551
 IR Inten    --     5.3553                 0.0707                 8.1850

                    46                     47                     48
                     A                      A                      A
 Frequencies --  3191.0291              3199.3134              3230.6725
 Red. masses --     1.0962                 1.0986                 1.1152
 Frc consts  --     6.5767                 6.6255                 6.8580
 IR Inten    --    50.1396                26.8737                21.6304

 - Thermochemistry -
 -------------------
 Temperature   298.150 Kelvin.  Pressure   1.00000 Atm.
 Atom     1 has atomic number  6 and mass  12.00000

 Molecular mass:   106.07825 amu.
 Principal axes and moments of inertia in atomic units:
                           1         2         3
     Eigenvalues --   470.385931129.710421333.16567
           X            0.99997   0.00177   0.00738
           Y           -0.00172   0.99997  -0.00717
           Z           -0.00739   0.00716   0.99995
 This molecule is an asymmetric top.
 Rotational symmetry number  1.
 Warning -- assumption of classical behavior for rotation
           may cause significant error
 Rotational temperatures (Kelvin)      0.18413     0.07667     0.06497
 Rotational constants (GHZ):           3.83672     1.59753     1.35373
 Zero-point vibrational energy     409546.9 (Joules/Mol)
                                   97.88406 (Kcal/Mol)
 Warning -- explicit consideration of   8 degrees of freedom as
           vibrations may cause significant error
 Vibrational temperatures:    131.66   150.37   326.78   427.99   513.30
          (Kelvin)            536.97   744.40   814.68   893.90   958.54
                             1037.20  1141.48  1178.02  1276.78  1349.64
                             1351.77  1377.41  1405.57  1411.01  1426.60
                             1492.16  1495.55  1571.82  1638.13  1704.08
                             1745.43  1807.27  1890.87  1902.35  1925.84
                             1972.09  2032.14  2093.85  2121.50  2158.32
                             2382.96  2472.36  2480.85  4303.44  4389.74
                             4428.65  4531.25  4548.24  4558.90  4569.88
                             4591.17  4603.09  4648.21

 Zero-point correction=                           0.155988 (Hartree/Particle)
 Thermal correction to Energy=                    0.163393
 Thermal correction to Enthalpy=                  0.164337
 Thermal correction to Gibbs Free Energy=         0.124230
 Sum of electronic and zero-point Energies=           -310.654077
 Sum of electronic and thermal Energies=              -310.646672
 Sum of electronic and thermal Enthalpies=            -310.645728
 Sum of electronic and thermal Free Energies=         -310.685835

                     E (Thermal)             CV                S
                      KCal/Mol        Cal/Mol-Kelvin    Cal/Mol-Kelvin
 Total                  102.531             28.505             84.412
 Electronic               0.000              0.000              0.000
 Translational            0.889              2.981             39.894
 Rotational               0.889              2.981             28.051
 Vibrational            100.753             22.544             16.467
 Vibration     1          0.602              1.955              3.628
 Vibration     2          0.605              1.946              3.368
 Vibration     3          0.651              1.800              1.902
 Vibration     4          0.691              1.678              1.431
 Vibration     5          0.732              1.561              1.136
 Vibration     6          0.745              1.527              1.067
 Vibration     7          0.872              1.211              0.616
 Vibration     8          0.922              1.104              0.512

 Optimization completed.
    -- Stationary point found.
 Normal termination of Gaussian 09 at Tue Mar  2 16:29:26 2021.
