 Gaussian 09, Revision C.01,
 Gaussian 09:  EM64L-G09RevC.01 23-Sep-2011

 ----------------------------------------
 # opt freq b3lyp/6-31g geom=connectivity
 ----------------------------------------

 99/9=1/99;
 -------------------
 Title Card Required
 -------------------
 Charge =  0 Multiplicity = 1

 SCF Done:  E(RB3LYP) =  -310.541665146     A.U. after   14 cycles
 SCF Done:  E(RB3LYP) =  -310.564171507     A.U. after   15 cycles
 SCF Done:  E(RB3LYP) =  -310.618847648     A.U. after   14 cycles
 SCF Done:  E(RB3LYP) =  -310.651530873     A.U. after   14 cycles
 SCF Done:  E(RB3LYP) =  -310.660115738     A.U. after   15 cycles
 SCF Done:  E(RB3LYP) =  -310.666556858     A.U. after   13 cycles
 SCF Done:  E(RB3LYP) =  -310.668457982     A.U. after   12 cycles
 SCF Done:  E(RB3LYP) =  -310.668635898     A.U. after   11 cycles
 SCF Done:  E(RB3LYP) =  -310.668642850     A.U. after    9 cycles
 SCF Done:  E(RB3LYP) =  -310.668644295     A.U. after    8 cycles
 SCF Done:  E(RB3LYP) =  -310.668645320     A.U. after    8 cycles
 SCF Done:  E(RB3LYP) =  -310.668647605     A.U. after    9 cycles
 SCF Done:  E(RB3LYP) =  -310.668650376     A.U. after   10 cycles
 SCF Done:  E(RB3LYP) =  -310.668650694     A.U. after    8 cycles
 SCF Done:  E(RB3LYP) =  -310.668650723     A.U. after    8 cycles
 SCF Done:  E(RB3LYP) =  -310.668650718     A.U. after    7 cycles
 Optimization completed.
    -- Stationary point found.
 Normal termination of Gaussian 09 at Tue Mar  2 16:13:30 2021.

 -----------------------------------------------------------------
 #N Geom=AllCheck Guess=TCheck SCRF=Check GenChk RB3LYP/6-31G Freq
 -----------------------------------------------------------------

 Structure from the checkpoint file:  oct02.chk
 -------------------
 Title Card Required
 -------------------
 Charge =  0 Multiplicity = 1

                         Standard orientation:
 ---------------------------------------------------------------------
 Center     Atomic      Atomic             Coordinates (Angstroms)
 Number     Number       Type             X           Y           Z
 ---------------------------------------------------------------------
      1          6           0       -0.937181   -2.352935    0.000000
      2          1           0        0.090228   -2.036481    0.000000
      3          1           0       -1.108434   -3.424704    0.000000
      4          6           0       -1.972429   -1.496346    0.000000
      5          1           0       -2.960604   -1.958420    0.000000
      6          6           0       -2.080997   -0.038655    0.000000
      7          1           0       -3.141644    0.217998    0.000000
      8          6           0       -1.334878    1.115509    0.000000
      9          1           0       -2.032038    1.955187    0.000000
     10          6           0        0.000000    1.735077    0.000000
     11          1           0       -0.192208    2.809429    0.000000
     12          6           0        1.363653    1.562321    0.000000
     13          1           0        1.848540    2.539962    0.000000
     14          6           0        2.414085    0.545004    0.000000
     15          1           0        3.400408    1.011178    0.000000
     16          6           0        2.417401   -0.798883    0.000000
     17          1           0        1.522736   -1.395069    0.000000
     18          1           0        3.355087   -1.345631    0.000000
 ---------------------------------------------------------------------

 SCF Done:  E(RB3LYP) =  -310.668650718     A.U. after    1 cycles

 The electronic state is 1-A'.
 Alpha  occ. eigenvalues --  -10.19911 -10.19888 -10.19752 -10.19739 -10.19361
 Alpha  occ. eigenvalues --  -10.19342 -10.18223 -10.18211  -0.81358  -0.79487
 Alpha  occ. eigenvalues --   -0.76292  -0.72345  -0.66045  -0.60601  -0.56286
 Alpha  occ. eigenvalues --   -0.49572  -0.48674  -0.47356  -0.47254  -0.43624
 Alpha  occ. eigenvalues --   -0.39461  -0.37269  -0.36664  -0.33896  -0.33372
 Alpha  occ. eigenvalues --   -0.32582  -0.31152  -0.26410  -0.20483
 Alpha virt. eigenvalues --   -0.07245   0.00584   0.06323   0.07961   0.09478
 Alpha virt. eigenvalues --    0.12068   0.12257   0.15042   0.15091   0.19608
 Alpha virt. eigenvalues --    0.19877   0.20819   0.22335   0.26803   0.30174

 Mulliken atomic charges:
              1
     1  C   -0.272199
     2  H    0.125399
     3  H    0.130019
     4  C   -0.048052
     5  H    0.115054
     6  C   -0.134130
     7  H    0.111335
     8  C   -0.135072
     9  H    0.108193
    10  C   -0.135407
    11  H    0.108121
    12  C   -0.135327
    13  H    0.111202
    14  C   -0.047752
    15  H    0.114817
    16  C   -0.272876
    17  H    0.126565
    18  H    0.130111
 Sum of Mulliken atomic charges =   0.00000

 Dipole moment (field-independent basis, Debye):
    X=             -0.0060    Y=              0.0094    Z=              0.0000  Tot=              0.0111
 Quadrupole moment (field-independent basis, Debye-Ang):
   XX=            -42.6905   YY=            -43.1698   ZZ=            -54.1035
   XY=              0.2817   XZ=              0.0000   YZ=              0.0000

  Exact polarizability: 137.110   7.950 123.137   0.000   0.000  25.606
 Approx polarizability: 220.266   6.377 208.290   0.000   0.000  32.018

 ******    3 imaginary frequencies (negative Signs) ******

                     1                      2                      3
                    A"                     A"                     A"
 Frequencies --  -378.0186              -155.3241              -122.8481
 Red. masses --     1.3624                 1.7601                 2.6779
 Frc consts  --     0.1147                 0.0250                 0.0238
 IR Inten    --     0.0000                 0.0013                 0.0000

                     4                      5                      6
                    A'                     A'                     A'
 Frequencies --    31.8919               220.0003               315.1871
 Red. masses --     3.0600                 5.3797                 2.6590
 Frc consts  --     0.0018                 0.1534                 0.1556
 IR Inten    --     0.0371                 0.0026                 0.1883

                     7                      8                      9
                    A"                     A"                     A'
 Frequencies --   316.7450               417.5893               461.4569
 Red. masses --     2.4004                 1.8939                 3.1695
 Frc consts  --     0.1419                 0.1946                 0.3977
 IR Inten    --     0.1713                 0.0005                 0.5149

                    10                     11                     12
                    A"                     A'                     A'
 Frequencies --   572.3983               656.9225               696.4990
 Red. masses --     1.2267                 4.0050                 3.5060
 Frc consts  --     0.2368                 1.0183                 1.0021
 IR Inten    --    43.6360                 0.8663                 4.8370

                    13                     14                     15
                    A"                     A"                     A'
 Frequencies --   700.9809               793.1163               823.1118
 Red. masses --     2.4702                 1.5132                 3.2514
 Frc consts  --     0.7152                 0.5608                 1.2979
 IR Inten    --     0.0014                 9.3237                 7.8713

                    16                     17                     18
                    A"                     A"                     A'
 Frequencies --   867.2357               905.7453               905.9679
 Red. masses --     1.4622                 1.3295                 4.1279
 Frc consts  --     0.6479                 0.6426                 1.9962
 IR Inten    --     0.0005                 0.0005                13.7964

                    19                     20                     21
                    A"                     A"                     A"
 Frequencies --   955.3871              1035.3376              1041.8327
 Red. masses --     1.3488                 1.2484                 1.2423
 Frc consts  --     0.7254                 0.7885                 0.7945
 IR Inten    --    99.2205                 2.3645                 0.0015

                    22                     23                     24
                    A'                     A"                     A"
 Frequencies --  1043.2463              1058.9573              1062.1540
 Red. masses --     2.3151                 1.2562                 1.1754
 Frc consts  --     1.4846                 0.8300                 0.7813
 IR Inten    --     3.0051                 0.0015                12.3324

                    25                     26                     27
                    A'                     A'                     A'
 Frequencies --  1104.0042              1159.6039              1380.5577
 Red. masses --     1.7885                 2.0002                 1.2859
 Frc consts  --     1.2844                 1.5847                 1.4440
 IR Inten    --    16.5891                 1.5477                 0.2755

                    28                     29                     30
                    A'                     A'                     A'
 Frequencies --  1418.5295              1484.0794              1503.1888
 Red. masses --     1.2249                 1.1587                 1.1826
 Frc consts  --     1.4523                 1.5036                 1.5744
 IR Inten    --     0.0009                 0.0138                 1.8783

                    31                     32                     33
                    A'                     A'                     A'
 Frequencies --  1508.5847              1548.7538              1556.2045
 Red. masses --     1.2304                 1.2685                 1.3210
 Frc consts  --     1.6498                 1.7927                 1.8848
 IR Inten    --     6.7351                 0.8767                 0.2929

                    34                     35                     36
                    A'                     A'                     A'
 Frequencies --  1583.7572              1630.5165              1665.7445
 Red. masses --     1.5282                 2.2955                 3.2498
 Frc consts  --     2.2584                 3.5957                 5.3128
 IR Inten    --     1.4667                 2.3316                 0.0149

                    37                     38                     39
                    A'                     A'                     A'
 Frequencies --  1714.6229              1721.4863              3079.7289
 Red. masses --     3.5943                 3.6725                 1.0806
 Frc consts  --     6.2259                 6.4125                 6.0387
 IR Inten    --     0.0718                 0.5453                 2.7267

                    40                     41                     42
                    A'                     A'                     A'
 Frequencies --  3099.3349              3116.4336              3129.3443
 Red. masses --     1.0828                 1.0854                 1.0863
 Frc consts  --     6.1283                 6.2111                 6.2675
 IR Inten    --     0.1872                 0.0275                38.4010

                    43                     44                     45
                    A'                     A'                     A'
 Frequencies --  3142.3545              3148.8648              3199.3499
 Red. masses --     1.0873                 1.0880                 1.0726
 Frc consts  --     6.3257                 6.3561                 6.4686
 IR Inten    --   113.1460                50.8916                12.2994

                    46                     47                     48
                    A'                     A'                     A'
 Frequencies --  3205.0353              3342.2536              3385.5670
 Red. masses --     1.0762                 1.1051                 1.0893
 Frc consts  --     6.5134                 7.2731                 7.3562
 IR Inten    --    15.2893                12.7970                 0.2818

 - Thermochemistry -
 -------------------
 Temperature   298.150 Kelvin.  Pressure   1.00000 Atm.
 Atom     1 has atomic number  6 and mass  12.00000

 Molecular mass:   106.07825 amu.
 Principal axes and moments of inertia in atomic units:
                           1         2         3
     Eigenvalues --   700.614951348.663522049.27847
           X            0.90842  -0.41806   0.00000
           Y            0.41806   0.90842   0.00000
           Z            0.00000   0.00000   1.00000
 This molecule is an asymmetric top.
 Rotational symmetry number  1.
 Warning -- assumption of classical behavior for rotation
           may cause significant error
 Rotational temperatures (Kelvin)      0.12363     0.06422     0.04227
 Rotational constants (GHZ):           2.57594     1.33817     0.88067
    3 imaginary frequencies ignored.
 Zero-point vibrational energy     404993.7 (Joules/Mol)
                                   96.79582 (Kcal/Mol)
 Warning -- explicit consideration of   7 degrees of freedom as
           vibrations may cause significant error
 Vibrational temperatures:     45.89   316.53   453.48   455.72   600.82
          (Kelvin)            663.93   823.55   945.16  1002.11  1008.55
                             1141.12  1184.27  1247.76  1303.16  1303.48
                             1374.59  1489.62  1498.96  1501.00  1523.60
                             1528.20  1588.41  1668.41  1986.31  2040.95
                             2135.26  2162.75  2170.51  2228.31  2239.03
                             2278.67  2345.95  2396.63  2466.96  2476.83
                             4431.04  4459.25  4483.85  4502.42  4521.14
                             4530.51  4603.15  4611.33  4808.75  4871.07

 Zero-point correction=                           0.154254 (Hartree/Particle)
 Thermal correction to Energy=                    0.160982
 Thermal correction to Enthalpy=                  0.161926
 Thermal correction to Gibbs Free Energy=         0.122027
 Sum of electronic and zero-point Energies=           -310.514397
 Sum of electronic and thermal Energies=              -310.507669
 Sum of electronic and thermal Enthalpies=            -310.506725
 Sum of electronic and thermal Free Energies=         -310.546623

                     E (Thermal)             CV                S
                      KCal/Mol        Cal/Mol-Kelvin    Cal/Mol-Kelvin
 Total                  101.017             25.635             83.973
 Electronic               0.000              0.000              0.000
 Translational            0.889              2.981             39.894
 Rotational               0.889              2.981             29.050
 Vibrational             99.240             19.674             15.029
 Vibration     1          0.594              1.983              5.708
 Vibration     2          0.647              1.811              1.959
 Vibration     3          0.703              1.645              1.335
 Vibration     4          0.704              1.642              1.327
 Vibration     5          0.781              1.432              0.900
 Vibration     6          0.819              1.336              0.762
 Vibration     7          0.929              1.091              0.500

 Optimization completed.
    -- Stationary point found.
 Normal termination of Gaussian 09 at Tue Mar  2 16:15:13 2021.
