 Gaussian 09, Revision C.01,
 Gaussian 09:  EM64L-G09RevC.01 23-Sep-2011

 -----------------------------------------
 # opt freq b3lyp/6-31g* geom=connectivity
 -----------------------------------------

 99/9=1/99;
 -------------------
 Title Card Required
 -------------------
 Charge =  0 Multiplicity = 1

 SCF Done:  E(RB3LYP) =  -310.768827692     A.U. after   14 cycles
 SCF Done:  E(RB3LYP) =  -310.789443036     A.U. after   13 cycles
 SCF Done:  E(RB3LYP) =  -310.791876707     A.U. after   13 cycles
 SCF Done:  E(RB3LYP) =  -310.794111877     A.U. after   12 cycles
 SCF Done:  E(RB3LYP) =  -310.794142239     A.U. after   10 cycles
 SCF Done:  E(RB3LYP) =  -310.794144936     A.U. after    8 cycles
 Optimization completed.
    -- Stationary point found.
 Normal termination of Gaussian 09 at Tue Mar  2 15:50:50 2021.

 --------------------------------------------------------------------
 #N Geom=AllCheck Guess=TCheck SCRF=Check GenChk RB3LYP/6-31G(d) Freq
 --------------------------------------------------------------------

 Structure from the checkpoint file:  oct05.chk
 -------------------
 Title Card Required
 -------------------
 Charge =  0 Multiplicity = 1

                         Standard orientation:
 ---------------------------------------------------------------------
 Center     Atomic      Atomic             Coordinates (Angstroms)
 Number     Number       Type             X           Y           Z
 ---------------------------------------------------------------------
      1          6           0       -0.192109    3.813758    0.000000
      2          1           0        0.850658    3.506909    0.000000
      3          1           0       -0.378903    4.883135    0.000000
      4          6           0       -1.207547    2.933529    0.000000
      5          1           0       -2.221422    3.332574    0.000000
      6          6           0       -1.125205    1.476251    0.000000
      7          1           0       -2.081706    0.953730    0.000000
      8          6           0        0.000034    0.719882    0.000000
      9          1           0        0.975978    1.205729    0.000000
     10          6           0        0.000000   -0.719864    0.000000
     11          1           0       -0.975948   -1.205699    0.000000
     12          6           0        1.125222   -1.476258    0.000000
     13          1           0        2.081743   -0.953774    0.000000
     14          6           0        1.207525   -2.933533    0.000000
     15          1           0        2.221389   -3.332608    0.000000
     16          6           0        0.192083   -3.813757    0.000000
     17          1           0       -0.850685   -3.506912    0.000000
     18          1           0        0.378876   -4.883134    0.000000
 ---------------------------------------------------------------------

 SCF Done:  E(RB3LYP) =  -310.794144936     A.U. after    1 cycles

 The electronic state is 1-A'.
 Alpha  occ. eigenvalues --  -10.19341 -10.19333 -10.19328 -10.19303 -10.19221
 Alpha  occ. eigenvalues --  -10.19215 -10.18350 -10.18350  -0.82207  -0.79438
 Alpha  occ. eigenvalues --   -0.75446  -0.70464  -0.63794  -0.59511  -0.54171
 Alpha  occ. eigenvalues --   -0.52790  -0.48935  -0.46583  -0.44961  -0.42249
 Alpha  occ. eigenvalues --   -0.41168  -0.36958  -0.36296  -0.35139  -0.34554
 Alpha  occ. eigenvalues --   -0.34380  -0.30996  -0.26017  -0.19562
 Alpha virt. eigenvalues --   -0.06299   0.00827   0.08723   0.09050   0.10887
 Alpha virt. eigenvalues --    0.11324   0.12215   0.12403   0.16608   0.17274
 Alpha virt. eigenvalues --    0.19054   0.19736   0.21207   0.21228   0.30424

 Mulliken atomic charges:
              1
     1  C   -0.339189
     2  H    0.141194
     3  H    0.144812
     4  C   -0.075718
     5  H    0.127101
     6  C   -0.152606
     7  H    0.124534
     8  C   -0.095609
     9  H    0.125487
    10  C   -0.095614
    11  H    0.125486
    12  C   -0.152605
    13  H    0.124534
    14  C   -0.075719
    15  H    0.127100
    16  C   -0.339190
    17  H    0.141193
    18  H    0.144811
 Sum of Mulliken atomic charges =   0.00000

 Dipole moment (field-independent basis, Debye):
    X=              0.0000    Y=              0.0001    Z=              0.0000  Tot=              0.0001
 Quadrupole moment (field-independent basis, Debye-Ang):
   XX=            -43.2603   YY=            -44.4255   ZZ=            -53.6634
   XY=             -0.2649   XZ=              0.0000   YZ=              0.0000

  Exact polarizability:  91.004 -26.354 217.186   0.000   0.000  29.027
 Approx polarizability: 154.696 -48.163 342.358   0.000   0.000  42.300

 ******    2 imaginary frequencies (negative Signs) ******

                     1                      2                      3
                    A"                     A"                     A'
 Frequencies --   -73.9281               -43.4144                99.3668
 Red. masses --     1.5065                 2.3242                 3.5719
 Frc consts  --     0.0049                 0.0026                 0.0208
 IR Inten    --     0.0000                 0.0623                 0.4940

                     4                      5                      6
                    A"                     A'                     A"
 Frequencies --   101.3612               198.5998               256.4313
 Red. masses --     2.8621                 3.6375                 1.8879
 Frc consts  --     0.0173                 0.0845                 0.0731
 IR Inten    --     0.7197                 0.0000                 0.8592

                     7                      8                      9
                    A"                     A'                     A'
 Frequencies --   301.8188               357.8892               416.0913
 Red. masses --     2.3649                 3.2042                 4.0399
 Frc consts  --     0.1269                 0.2418                 0.4121
 IR Inten    --     0.0000                13.6491                 0.0000

                    10                     11                     12
                    A'                     A"                     A"
 Frequencies --   553.3950               627.1803               656.6069
 Red. masses --     2.5949                 1.3947                 1.6658
 Frc consts  --     0.4682                 0.3232                 0.4231
 IR Inten    --     0.0000                11.9143                 0.0000

                    13                     14                     15
                    A'                     A"                     A"
 Frequencies --   658.1755               854.1147               910.2908
 Red. masses --     2.4841                 1.7587                 1.6856
 Frc consts  --     0.6340                 0.7559                 0.8229
 IR Inten    --     9.9521                 0.0875                 0.0000

                    16                     17                     18
                    A"                     A"                     A"
 Frequencies --   913.6909               914.9813               973.1133
 Red. masses --     1.4016                 1.7146                 1.1167
 Frc consts  --     0.6894                 0.8458                 0.6231
 IR Inten    --    70.8019                 0.0000                 0.0000

                    19                     20                     21
                    A'                     A'                     A"
 Frequencies --   974.1000              1019.5701              1035.5204
 Red. masses --     2.9918                 2.1905                 1.1102
 Frc consts  --     1.6726                 1.3416                 0.7014
 IR Inten    --     2.4558                 0.0000                43.7733

                    22                     23                     24
                    A"                     A"                     A'
 Frequencies --  1035.9226              1041.2432              1072.5122
 Red. masses --     1.1176                 1.0920                 1.6591
 Frc consts  --     0.7066                 0.6976                 1.1244
 IR Inten    --     0.0001                30.1262                 0.0000

                    25                     26                     27
                    A'                     A'                     A'
 Frequencies --  1091.8293              1229.7791              1276.9875
 Red. masses --     1.4402                 2.2397                 1.2268
 Frc consts  --     1.0115                 1.9957                 1.1787
 IR Inten    --    16.1303                 0.0000                11.9278

                    28                     29                     30
                    A'                     A'                     A'
 Frequencies --  1321.2946              1330.8929              1366.8817
 Red. masses --     1.5311                 1.3240                 1.3977
 Frc consts  --     1.5749                 1.3817                 1.5386
 IR Inten    --     0.0000                 4.7965                 0.0000

                    31                     32                     33
                    A'                     A'                     A'
 Frequencies --  1375.7299              1396.6605              1476.4849
 Red. masses --     1.2823                 1.4557                 1.2293
 Frc consts  --     1.4299                 1.6730                 1.5790
 IR Inten    --     0.2871                 0.0000                 7.8045

                    34                     35                     36
                    A'                     A'                     A'
 Frequencies --  1476.5187              1651.4644              1664.6322
 Red. masses --     1.2808                 3.7090                 5.5237
 Frc consts  --     1.6452                 5.9600                 9.0181
 IR Inten    --     0.0319                 0.0000                20.9101

                    37                     38                     39
                    A'                     A'                     A'
 Frequencies --  1698.1861              1716.8856              3145.8571
 Red. masses --     3.5114                 3.9670                 1.0879
 Frc consts  --     5.9663                 6.8897                 6.3434
 IR Inten    --     4.0437                 0.0000                24.0322

                    40                     41                     42
                    A'                     A'                     A'
 Frequencies --  3147.3694              3151.2598              3158.4949
 Red. masses --     1.0876                 1.0857                 1.0829
 Frc consts  --     6.3478                 6.3520                 6.3647
 IR Inten    --     0.0001                 0.0000                34.3079

                    43                     44                     45
                    A'                     A'                     A'
 Frequencies --  3164.0801              3166.7013              3172.0583
 Red. masses --     1.0790                 1.0839                 1.0692
 Frc consts  --     6.3645                 6.4039                 6.3386
 IR Inten    --     0.0000                85.4647                12.9743

                    46                     47                     48
                    A'                     A'                     A'
 Frequencies --  3172.3417              3249.7317              3249.7913
 Red. masses --     1.0715                 1.1158                 1.1158
 Frc consts  --     6.3533                 6.9430                 6.9432
 IR Inten    --     0.0002                30.2068                 0.0283

 - Thermochemistry -
 -------------------
 Temperature   298.150 Kelvin.  Pressure   1.00000 Atm.
 Atom     1 has atomic number  6 and mass  12.00000

 Molecular mass:   106.07825 amu.
 Principal axes and moments of inertia in atomic units:
                           1         2         3
     Eigenvalues --   185.228092703.651942888.88004
           X           -0.22827   0.97360   0.00000
           Y            0.97360   0.22827   0.00000
           Z            0.00000   0.00000   1.00000
 This molecule is an asymmetric top.
 Rotational symmetry number  1.
 Rotational temperatures (Kelvin)      0.46761     0.03204     0.02998
 Rotational constants (GHZ):           9.74334     0.66752     0.62472
    2 imaginary frequencies ignored.
 Zero-point vibrational energy     399695.6 (Joules/Mol)
                                   95.52954 (Kcal/Mol)
 Warning -- explicit consideration of   8 degrees of freedom as
           vibrations may cause significant error
 Vibrational temperatures:    142.97   145.84   285.74   368.95   434.25
          (Kelvin)            514.92   598.66   796.21   902.37   944.71
                              946.97  1228.88  1309.70  1314.60  1316.45
                             1400.09  1401.51  1466.93  1489.88  1490.46
                             1498.11  1543.10  1570.90  1769.38  1837.30
                             1901.05  1914.86  1966.64  1979.37  2009.48
                             2124.33  2124.38  2376.09  2395.03  2443.31
                             2470.21  4526.18  4528.36  4533.95  4544.36
                             4552.40  4556.17  4563.88  4564.29  4675.63
                             4675.72

 Zero-point correction=                           0.152236 (Hartree/Particle)
 Thermal correction to Energy=                    0.159811
 Thermal correction to Enthalpy=                  0.160756
 Thermal correction to Gibbs Free Energy=         0.119920
 Sum of electronic and zero-point Energies=           -310.641909
 Sum of electronic and thermal Energies=              -310.634334
 Sum of electronic and thermal Enthalpies=            -310.633389
 Sum of electronic and thermal Free Energies=         -310.674225

                     E (Thermal)             CV                S
                      KCal/Mol        Cal/Mol-Kelvin    Cal/Mol-Kelvin
 Total                  100.283             28.117             85.946
 Electronic               0.000              0.000              0.000
 Translational            0.889              2.981             39.894
 Rotational               0.889              2.981             28.761
 Vibrational             98.506             22.156             17.291
 Vibration     1          0.604              1.950              3.467
 Vibration     2          0.604              1.948              3.428
 Vibration     3          0.637              1.842              2.146
 Vibration     4          0.666              1.752              1.686
 Vibration     5          0.694              1.670              1.407
 Vibration     6          0.733              1.559              1.131
 Vibration     7          0.779              1.435              0.905
 Vibration     8          0.909              1.132              0.537

 Optimization completed.
    -- Stationary point found.
 Normal termination of Gaussian 09 at Tue Mar  2 15:52:52 2021.
