 Gaussian 09, Revision C.01,
 Gaussian 09:  EM64L-G09RevC.01 23-Sep-2011

 -----------------------------------------
 # opt freq b3lyp/6-31g* geom=connectivity
 -----------------------------------------

 99/9=1/99;
 -------------------
 Title Card Required
 -------------------
 Charge =  0 Multiplicity = 1

 SCF Done:  E(RB3LYP) =  -233.376955860     A.U. after   14 cycles
 SCF Done:  E(RB3LYP) =  -233.391395231     A.U. after   13 cycles
 SCF Done:  E(RB3LYP) =  -233.392516201     A.U. after   12 cycles
 SCF Done:  E(RB3LYP) =  -233.392832993     A.U. after   12 cycles
 SCF Done:  E(RB3LYP) =  -233.392859111     A.U. after   11 cycles
 SCF Done:  E(RB3LYP) =  -233.392856596     A.U. after   11 cycles
 SCF Done:  E(RB3LYP) =  -233.392869563     A.U. after   10 cycles
 SCF Done:  E(RB3LYP) =  -233.392871387     A.U. after    9 cycles
 SCF Done:  E(RB3LYP) =  -233.392871551     A.U. after    8 cycles
 Optimization completed.
    -- Stationary point found.
 Normal termination of Gaussian 09 at Tue Mar  2 15:02:04 2021.

 --------------------------------------------------------------------
 #N Geom=AllCheck Guess=TCheck SCRF=Check GenChk RB3LYP/6-31G(d) Freq
 --------------------------------------------------------------------

 Structure from the checkpoint file:  transcishex.chk
 -------------------
 Title Card Required
 -------------------
 Charge =  0 Multiplicity = 1

                         Standard orientation:
 ---------------------------------------------------------------------
 Center     Atomic      Atomic             Coordinates (Angstroms)
 Number     Number       Type             X           Y           Z
 ---------------------------------------------------------------------
      1          6           0        2.880300    0.487630    0.028042
      2          1           0        2.754249    1.551084    0.218701
      3          1           0        3.899276    0.129977   -0.083440
      4          6           0        1.826526   -0.339652   -0.066431
      5          1           0        1.997767   -1.399244   -0.259749
      6          6           0        0.443048    0.073650    0.070321
      7          1           0        0.267351    1.130462    0.272028
      8          6           0       -0.607829   -0.770979   -0.021532
      9          1           0       -0.397427   -1.830134   -0.174235
     10          6           0       -2.021703   -0.414410    0.089077
     11          1           0       -2.691317   -1.241171    0.326782
     12          6           0       -2.560405    0.801480   -0.091761
     13          1           0       -1.963326    1.663792   -0.377563
     14          1           0       -3.626190    0.968918    0.031177
 ---------------------------------------------------------------------

 SCF Done:  E(RB3LYP) =  -233.392871551     A.U. after    1 cycles

 The electronic state is 1-A.
 Alpha  occ. eigenvalues --  -10.19330 -10.19296 -10.19234 -10.19132 -10.18366
 Alpha  occ. eigenvalues --  -10.18331  -0.81546  -0.77358  -0.71348  -0.62679
 Alpha  occ. eigenvalues --   -0.56472  -0.53599  -0.47998  -0.46184  -0.42968
 Alpha  occ. eigenvalues --   -0.40737  -0.37698  -0.35629  -0.34552  -0.33226
 Alpha  occ. eigenvalues --   -0.28263  -0.20972
 Alpha virt. eigenvalues --   -0.04604   0.04234   0.09934   0.10905   0.11810
 Alpha virt. eigenvalues --    0.12709   0.14595   0.18054   0.18658   0.19572
 Alpha virt. eigenvalues --    0.21271   0.31341   0.32108   0.35060   0.37891

 Mulliken atomic charges:
              1
     1  C   -0.356867
     2  H    0.141256
     3  H    0.144538
     4  C   -0.059550
     5  H    0.126603
     6  C   -0.097598
     7  H    0.126115
     8  C   -0.150277
     9  H    0.126491
    10  C   -0.080373
    11  H    0.129060
    12  C   -0.335505
    13  H    0.142297
    14  H    0.143811
 Sum of Mulliken atomic charges =   0.00000

 Dipole moment (field-independent basis, Debye):
    X=             -0.0459    Y=             -0.1125    Z=              0.0084  Tot=              0.1218
 Quadrupole moment (field-independent basis, Debye-Ang):
   XX=            -33.6286   YY=            -33.2576   ZZ=            -40.4986
   XY=              0.1162   XZ=             -0.5550   YZ=              0.2744

  Exact polarizability: 129.503   4.393  64.733   0.266   0.700  23.969
 Approx polarizability: 200.537  16.009 104.752   3.025   0.797  34.435

                     1                      2                      3
                     A                      A                      A
 Frequencies --    93.9037               141.0172               165.2914
 Red. masses --     1.6147                 3.0218                 2.7933
 Frc consts  --     0.0084                 0.0354                 0.0450
 IR Inten    --     0.0534                 0.3686                 1.2053

                     4                      5                      6
                     A                      A                      A
 Frequencies --   264.4941               327.1471               470.6665
 Red. masses --     1.9031                 2.8024                 3.1210
 Frc consts  --     0.0784                 0.1767                 0.4074
 IR Inten    --     1.2195                 4.2673                 0.6769

                     7                      8                      9
                     A                      A                      A
 Frequencies --   575.1111               627.4771               696.5830
 Red. masses --     1.7601                 1.5885                 1.6525
 Frc consts  --     0.3430                 0.3685                 0.4724
 IR Inten    --     4.4005                 0.8736                 9.5720

                    10                     11                     12
                     A                      A                      A
 Frequencies --   893.5939               921.0469               922.6977
 Red. masses --     1.8599                 1.3798                 1.4182
 Frc consts  --     0.8750                 0.6897                 0.7114
 IR Inten    --     3.3621                60.1130                11.2661

                    13                     14                     15
                     A                      A                      A
 Frequencies --   960.5797               987.2034               999.8637
 Red. masses --     1.5528                 1.2180                 2.0050
 Frc consts  --     0.8442                 0.6994                 1.1810
 IR Inten    --     0.3291                 5.8222                 4.0714

                    16                     17                     18
                     A                      A                      A
 Frequencies --  1033.9475              1054.7081              1090.2397
 Red. masses --     1.1395                 1.0937                 1.4397
 Frc consts  --     0.7177                 0.7168                 1.0083
 IR Inten    --     9.7335                36.3468                 0.7764

                    19                     20                     21
                     A                      A                      A
 Frequencies --  1218.8193              1309.8763              1323.4237
 Red. masses --     2.1813                 1.3059                 1.4007
 Frc consts  --     1.9091                 1.3201                 1.4454
 IR Inten    --     7.4491                 1.4464                 1.6138

                    22                     23                     24
                     A                      A                      A
 Frequencies --  1342.0191              1369.2660              1472.2557
 Red. masses --     1.3056                 1.3324                 1.2261
 Frc consts  --     1.3854                 1.4718                 1.5658
 IR Inten    --     1.8903                 0.8898                 4.6796

                    25                     26                     27
                     A                      A                      A
 Frequencies --  1478.5614              1670.5623              1688.6900
 Red. masses --     1.2755                 4.8284                 3.6808
 Frc consts  --     1.6429                 7.9392                 6.1844
 IR Inten    --     0.4050                 9.3102                 3.9042

                    28                     29                     30
                     A                      A                      A
 Frequencies --  1721.9859              3142.1017              3148.3964
 Red. masses --     4.2123                 1.0866                 1.0840
 Frc consts  --     7.3591                 6.3205                 6.3308
 IR Inten    --     1.3611                13.6461                 5.7747

                    31                     32                     33
                     A                      A                      A
 Frequencies --  3156.8233              3162.3128              3165.5076
 Red. masses --     1.0830                 1.0869                 1.0652
 Frc consts  --     6.3589                 6.4038                 6.2889
 IR Inten    --    18.5715                45.3484                 5.0080

                    34                     35                     36
                     A                      A                      A
 Frequencies --  3169.3257              3248.1401              3248.5506
 Red. masses --     1.0675                 1.1161                 1.1157
 Frc consts  --     6.3175                 6.9377                 6.9370
 IR Inten    --     5.3319                18.9405                12.3485

 - Thermochemistry -
 -------------------
 Temperature   298.150 Kelvin.  Pressure   1.00000 Atm.
 Atom     1 has atomic number  6 and mass  12.00000

 Molecular mass:    80.06260 amu.
 Principal axes and moments of inertia in atomic units:
                           1         2         3
     Eigenvalues --   129.856851166.140211290.27611
           X            1.00000  -0.00144  -0.00108
           Y            0.00145   0.99996   0.00898
           Z            0.00107  -0.00898   0.99996
 This molecule is an asymmetric top.
 Rotational symmetry number  1.
 Rotational temperatures (Kelvin)      0.66699     0.07427     0.06713
 Rotational constants (GHZ):          13.89793     1.54762     1.39872
 Zero-point vibrational energy     312597.3 (Joules/Mol)
                                   74.71255 (Kcal/Mol)
 Warning -- explicit consideration of   7 degrees of freedom as
           vibrations may cause significant error
 Vibrational temperatures:    135.11   202.89   237.82   380.55   470.69
          (Kelvin)            677.18   827.46   902.80  1002.23  1285.68
                             1325.18  1327.55  1382.06  1420.36  1438.58
                             1487.62  1517.49  1568.61  1753.61  1884.62
                             1904.11  1930.86  1970.07  2118.24  2127.32
                             2403.56  2429.65  2477.55  4520.78  4529.83
                             4541.96  4549.86  4554.45  4559.95  4673.34
                             4673.93

 Zero-point correction=                           0.119062 (Hartree/Particle)
 Thermal correction to Energy=                    0.125884
 Thermal correction to Enthalpy=                  0.126828
 Thermal correction to Gibbs Free Energy=         0.088519
 Sum of electronic and zero-point Energies=           -233.273810
 Sum of electronic and thermal Energies=              -233.266987
 Sum of electronic and thermal Enthalpies=            -233.266043
 Sum of electronic and thermal Free Energies=         -233.304353

                     E (Thermal)             CV                S
                      KCal/Mol        Cal/Mol-Kelvin    Cal/Mol-Kelvin
 Total                   78.994             23.871             80.630
 Electronic               0.000              0.000              0.000
 Translational            0.889              2.981             39.055
 Rotational               0.889              2.981             26.771
 Vibrational             77.216             17.909             14.803
 Vibration     1          0.603              1.954              3.577
 Vibration     2          0.615              1.912              2.790
 Vibration     3          0.624              1.885              2.488
 Vibration     4          0.671              1.738              1.632
 Vibration     5          0.711              1.621              1.274
 Vibration     6          0.828              1.315              0.736
 Vibration     7          0.931              1.085              0.495

 Optimization completed.
    -- Stationary point found.
 Normal termination of Gaussian 09 at Tue Mar  2 15:03:24 2021.
